 Gaussian 16, Revision B.01,
 Gaussian 16:  ES64L-G16RevB.01 20-Dec-2017

 ----------------------------------------------------------------------
 #P PBE1PBE/def2TZVP opt freq EmpiricalDispersion=GD3 Int=(grid=99590)
 scrf=(iefpcm, solvent=water)
 ----------------------------------------------------------------------

 -------------------
 pfp-betaC_ester int
 -------------------
 Symbolic Z-matrix:
 Charge =  0 Multiplicity = 1

 SCF Done:  E(RPBE1PBE) =  -1090.75071545     A.U. after   12 cycles
 SCF Done:  E(RPBE1PBE) =  -1090.75223340     A.U. after   12 cycles
 SCF Done:  E(RPBE1PBE) =  -1090.76055039     A.U. after   10 cycles
 SCF Done:  E(RPBE1PBE) =  -1090.76307565     A.U. after   11 cycles
 SCF Done:  E(RPBE1PBE) =  -1090.76291251     A.U. after   10 cycles
 SCF Done:  E(RPBE1PBE) =  -1090.76422490     A.U. after    9 cycles
 SCF Done:  E(RPBE1PBE) =  -1090.76439624     A.U. after   10 cycles
 SCF Done:  E(RPBE1PBE) =  -1090.76445953     A.U. after    9 cycles
 SCF Done:  E(RPBE1PBE) =  -1090.76448239     A.U. after    8 cycles
 SCF Done:  E(RPBE1PBE) =  -1090.76449527     A.U. after    8 cycles
 SCF Done:  E(RPBE1PBE) =  -1090.76450106     A.U. after    8 cycles
 SCF Done:  E(RPBE1PBE) =  -1090.76450655     A.U. after    8 cycles
 SCF Done:  E(RPBE1PBE) =  -1090.76451481     A.U. after    8 cycles
 SCF Done:  E(RPBE1PBE) =  -1090.76451841     A.U. after    8 cycles
 SCF Done:  E(RPBE1PBE) =  -1090.76452332     A.U. after    9 cycles
 SCF Done:  E(RPBE1PBE) =  -1090.76452415     A.U. after    7 cycles
 SCF Done:  E(RPBE1PBE) =  -1090.76452445     A.U. after    7 cycles
 SCF Done:  E(RPBE1PBE) =  -1090.76452444     A.U. after    6 cycles
 Optimization completed.
    -- Stationary point found.
 Normal termination of Gaussian 16 at Thu Aug 29 04:29:55 2024.

 ----------------------------------------------------------------------
 #P Geom=AllCheck Guess=TCheck SCRF=Check GenChk RPBE1PBE/def2TZVP Freq
 ----------------------------------------------------------------------

 Structure from the checkpoint file:  "/scratch/Gau-1914572.chk"
 -------------------
 pfp-betaC_ester int
 -------------------
 Charge =  0 Multiplicity = 1

                         Standard orientation:
 ---------------------------------------------------------------------
 Center     Atomic      Atomic             Coordinates (Angstroms)
 Number     Number       Type             X           Y           Z
 ---------------------------------------------------------------------
      1          1           0        1.717200   -2.055447    0.183448
      2          8           0        1.733581    0.350091    1.308009
      3          6           0        2.161404    0.093645    0.179735
      4          7           0        2.600146   -1.560424    0.094465
      5          1           0        2.966270   -1.777459   -0.828641
      6          6           0        3.520877   -1.964413    1.159234
      7          1           0        4.508060   -1.551487    0.963039
      8          1           0        3.137352   -1.566937    2.097541
      9          1           0        3.588928   -3.050187    1.215340
     10          6           0        3.349943    0.822418   -0.425709
     11          1           0        4.222007    0.591460    0.191648
     12          1           0        3.545226    0.442477   -1.431876
     13          8           0        1.129940    0.047614   -0.936892
     14          6           0       -0.150169    0.035570   -0.539375
     15          6           0       -0.882915   -1.147527   -0.512950
     16          6           0       -0.820939    1.201892   -0.178960
     17          6           0       -2.219919   -1.178459   -0.160518
     18          6           0       -2.157052    1.187788    0.181435
     19          6           0       -2.861274   -0.003991    0.191080
     20          9           0       -0.281098   -2.294861   -0.834343
     21          9           0       -0.183018    2.365274   -0.198191
     22          9           0       -2.886792   -2.326833   -0.153127
     23          9           0       -2.771003    2.317706    0.514535
     24          9           0       -4.143420   -0.019243    0.532391
     25          6           0        3.124708    2.322860   -0.457416
     26          1           0        2.913443    2.699965    0.544736
     27          1           0        4.011650    2.834036   -0.836576
     28          1           0        2.280654    2.577823   -1.099563
 ---------------------------------------------------------------------

 SCF Done:  E(RPBE1PBE) =  -1090.76452444     A.U. after    1 cycles

 The electronic state is 1-A.
 Alpha  occ. eigenvalues --  -24.81657 -24.81640 -24.81546 -24.81440 -24.80811
 Alpha  occ. eigenvalues --  -19.23331 -19.15039 -14.45776 -10.35735 -10.34143
 Alpha  occ. eigenvalues --  -10.33995 -10.33890 -10.33574 -10.33409 -10.31000
 Alpha  occ. eigenvalues --  -10.26040 -10.22223 -10.20743  -1.30851  -1.30188
 Alpha  occ. eigenvalues --   -1.29528  -1.28770  -1.28361  -1.11076  -1.03109
 Alpha  occ. eigenvalues --   -0.97861  -0.92569  -0.81380  -0.80801  -0.79143
 Alpha  occ. eigenvalues --   -0.73015  -0.70031  -0.69449  -0.67016  -0.62851
 Alpha  occ. eigenvalues --   -0.62442  -0.61294  -0.58881  -0.57445  -0.57240
 Alpha  occ. eigenvalues --   -0.56546  -0.55467  -0.55164  -0.54261  -0.52658
 Alpha  occ. eigenvalues --   -0.51703  -0.50056  -0.49861  -0.49426  -0.48751
 Alpha  occ. eigenvalues --   -0.47724  -0.47234  -0.46908  -0.45146  -0.44422
 Alpha  occ. eigenvalues --   -0.43449  -0.42646  -0.41612  -0.41319  -0.40787
 Alpha  occ. eigenvalues --   -0.38056  -0.37196  -0.36893  -0.35602  -0.32694
 Alpha  occ. eigenvalues --   -0.29229  -0.27178  -0.26532  -0.26158
 Alpha virt. eigenvalues --   -0.01855  -0.01226  -0.01037   0.03820   0.06109
 Alpha virt. eigenvalues --    0.07576   0.07990   0.08302   0.09929   0.10593
 Alpha virt. eigenvalues --    0.11583   0.11953   0.12555   0.13479   0.14010

 Mulliken charges:
               1
     1  H    0.266599
     2  O   -0.511690
     3  C    0.237686
     4  N   -0.163893
     5  H    0.280849
     6  C   -0.327877
     7  H    0.164378
     8  H    0.161433
     9  H    0.168563
    10  C   -0.175478
    11  H    0.113928
    12  H    0.113208
    13  O   -0.332394
    14  C    0.124714
    15  C    0.166606
    16  C    0.176645
    17  C    0.137810
    18  C    0.145919
    19  C    0.163338
    20  F   -0.191307
    21  F   -0.176116
    22  F   -0.174151
    23  F   -0.174720
    24  F   -0.172831
    25  C   -0.404721
    26  H    0.119530
    27  H    0.137349
    28  H    0.126623
 Sum of Mulliken charges =  -0.00000

 Dipole moment (field-independent basis, Debye):
    X=              6.2786    Y=             -5.5858    Z=             -2.1399  Tot=              8.6719
 Quadrupole moment (field-independent basis, Debye-Ang):
   XX=            -85.6997   YY=            -98.1740   ZZ=           -103.9511
   XY=            -14.5069   XZ=             -1.5897   YZ=             -4.0258

  Exact polarizability: 207.804  -1.514 188.885 -10.361   5.412 129.070
 Approx polarizability: 219.876  -0.673 215.029 -17.919  12.185 149.896

                      1                      2                      3
                      A                      A                      A
 Frequencies --     25.4188                49.7745                64.0359
 Red. masses --      5.1431                 4.2943                 5.3008
 Frc consts  --      0.0020                 0.0063                 0.0128
 IR Inten    --      3.1549                 0.3030                10.4464

                      4                      5                      6
                      A                      A                      A
 Frequencies --     72.5190                94.3914               139.8436
 Red. masses --      2.4950                 2.6105                 8.5521
 Frc consts  --      0.0077                 0.0137                 0.0985
 IR Inten    --     11.1110                 5.0012                13.2002

                      7                      8                      9
                      A                      A                      A
 Frequencies --    141.5878               145.8698               178.0706
 Red. masses --     11.2553                 4.1056                 4.8183
 Frc consts  --      0.1329                 0.0515                 0.0900
 IR Inten    --     14.2281                82.2377                 4.7804

                     10                     11                     12
                      A                      A                      A
 Frequencies --    186.4446               193.0580               208.6587
 Red. masses --      4.6813                 1.6880                 1.4332
 Frc consts  --      0.0959                 0.0371                 0.0368
 IR Inten    --      1.4310                12.5558                 9.2879

                     13                     14                     15
                      A                      A                      A
 Frequencies --    231.5309               237.1084               273.7780
 Red. masses --      4.1975                 2.4832                12.8400
 Frc consts  --      0.1326                 0.0823                 0.5670
 IR Inten    --     13.2348                 7.2001                12.3119

                     16                     17                     18
                      A                      A                      A
 Frequencies --    276.8525               294.0538               309.1697
 Red. masses --     15.6585                 8.1372                 5.9905
 Frc consts  --      0.7071                 0.4146                 0.3374
 IR Inten    --      1.1494                57.8961                 4.2219

                     19                     20                     21
                      A                      A                      A
 Frequencies --    322.2230               349.7001               366.7111
 Red. masses --      5.5777                 4.4228                 6.6865
 Frc consts  --      0.3412                 0.3187                 0.5298
 IR Inten    --     54.1720                 3.7791                17.5801

                     22                     23                     24
                      A                      A                      A
 Frequencies --    380.8462               383.8727               413.1281
 Red. masses --      4.5669                10.2079                 7.6803
 Frc consts  --      0.3903                 0.8863                 0.7723
 IR Inten    --      9.4580                 1.2865                34.8149

                     25                     26                     27
                      A                      A                      A
 Frequencies --    454.7378               481.7879               552.1267
 Red. masses --     14.0440                10.1354                 7.3022
 Frc consts  --      1.7111                 1.3861                 1.3115
 IR Inten    --      1.5729                14.8386                73.9905

                     28                     29                     30
                      A                      A                      A
 Frequencies --    577.9532               600.8352               670.4795
 Red. masses --      6.7765                 5.8751                 9.5663
 Frc consts  --      1.3337                 1.2496                 2.5337
 IR Inten    --     38.5678                43.1915                18.1278

                     31                     32                     33
                      A                      A                      A
 Frequencies --    674.6494               680.4533               705.4282
 Red. masses --      4.8688                 4.9660                 7.1288
 Frc consts  --      1.3057                 1.3547                 2.0901
 IR Inten    --     74.0182               175.7806                36.1610

                     34                     35                     36
                      A                      A                      A
 Frequencies --    766.9457               788.2722               802.0474
 Red. masses --      2.4968                 3.9294                 8.5077
 Frc consts  --      0.8653                 1.4386                 3.2245
 IR Inten    --     38.9630                25.1820                10.2620

                     37                     38                     39
                      A                      A                      A
 Frequencies --    821.4027               942.6850              1015.0025
 Red. masses --      1.3097                 2.0460                11.7214
 Frc consts  --      0.5206                 1.0712                 7.1148
 IR Inten    --     87.2597               176.5093               420.0728

                     40                     41                     42
                      A                      A                      A
 Frequencies --   1023.5218              1029.0305              1060.9889
 Red. masses --      2.0274                 3.6508                 1.8339
 Frc consts  --      1.2513                 2.2777                 1.2163
 IR Inten    --    278.1123               409.0080                18.1669

                     43                     44                     45
                      A                      A                      A
 Frequencies --   1080.6132              1096.3911              1104.2203
 Red. masses --      1.9790                 1.8521                 1.9763
 Frc consts  --      1.3615                 1.3118                 1.4198
 IR Inten    --     95.7147                 3.9094                17.3033

                     46                     47                     48
                      A                      A                      A
 Frequencies --   1134.9610              1168.2281              1198.5307
 Red. masses --      2.0235                13.3365                 7.1064
 Frc consts  --      1.5357                10.7238                 6.0145
 IR Inten    --    119.8309                 1.5775                 0.9823

                     49                     50                     51
                      A                      A                      A
 Frequencies --   1282.5427              1308.2228              1329.3307
 Red. masses --      1.3038                 1.2373                11.8972
 Frc consts  --      1.2636                 1.2476                12.3868
 IR Inten    --     49.2617                58.0510                 4.1853

                     52                     53                     54
                      A                      A                      A
 Frequencies --   1341.5031              1348.6884              1371.0795
 Red. masses --      7.9597                 1.2895                 1.4975
 Frc consts  --      8.4398                 1.3820                 1.6587
 IR Inten    --      5.7105                28.0137                15.3166

                     55                     56                     57
                      A                      A                      A
 Frequencies --   1392.7899              1438.8556              1462.4018
 Red. masses --      1.2867                 1.1804                 1.0768
 Frc consts  --      1.4706                 1.4398                 1.3568
 IR Inten    --      5.3709                16.9431                 2.9051

                     58                     59                     60
                      A                      A                      A
 Frequencies --   1473.5420              1487.5906              1489.0385
 Red. masses --      1.0397                 1.0423                 1.0704
 Frc consts  --      1.3300                 1.3590                 1.3983
 IR Inten    --     13.6450                29.8084                 9.0853

                     61                     62                     63
                      A                      A                      A
 Frequencies --   1491.5226              1513.0669              1551.1706
 Red. masses --      1.0456                10.5174                12.0627
 Frc consts  --      1.3704                14.1865                17.1007
 IR Inten    --     30.2535                44.9247               542.8668

                     64                     65                     66
                      A                      A                      A
 Frequencies --   1559.8896              1617.8180              1631.6561
 Red. masses --     11.9039                 4.9675                 1.1973
 Frc consts  --     17.0659                 7.6604                 1.8781
 IR Inten    --    478.2321               400.8786               162.9265

                     67                     68                     69
                      A                      A                      A
 Frequencies --   1683.3502              1703.2863              3059.9851
 Red. masses --     11.9611                11.9794                 1.0357
 Frc consts  --     19.9696                20.4768                 5.7138
 IR Inten    --      8.0600                 1.2972                42.6000

                     70                     71                     72
                      A                      A                      A
 Frequencies --   3064.7287              3084.5670              3109.8303
 Red. masses --      1.0595                 1.0329                 1.1027
 Frc consts  --      5.8631                 5.7901                 6.2834
 IR Inten    --     23.3001                24.5942                12.8822

                     73                     74                     75
                      A                      A                      A
 Frequencies --   3135.1508              3145.9950              3170.4447
 Red. masses --      1.1020                 1.1031                 1.1056
 Frc consts  --      6.3820                 6.4324                 6.5476
 IR Inten    --     37.1984                41.7783                 6.1880

                     76                     77                     78
                      A                      A                      A
 Frequencies --   3184.6824              3502.6733              3575.0677
 Red. masses --      1.1059                 1.0515                 1.0952
 Frc consts  --      6.6085                 7.6005                 8.2471
 IR Inten    --      7.1676                46.2577                81.7055

 - Thermochemistry -
 -------------------
 Temperature   298.150 Kelvin.  Pressure   1.00000 Atm.
 Atom     1 has atomic number  1 and mass   1.00783

 Molecular mass:   271.06317 amu.
 Principal axes and moments of inertia in atomic units:
                           1         2         3
     Eigenvalues --  2804.623916069.405088108.17611
           X            0.99998  -0.00325   0.00521
           Y            0.00338   0.99967  -0.02550
           Z           -0.00513   0.02552   0.99966
 This molecule is an asymmetric top.
 Rotational symmetry number  1.
 Warning -- assumption of classical behavior for rotation
           may cause significant error
 Rotational temperatures (Kelvin)      0.03088     0.01427     0.01068
 Rotational constants (GHZ):           0.64349     0.29735     0.22258
 Zero-point vibrational energy     522052.8 (Joules/Mol)
                                  124.77361 (Kcal/Mol)
 Warning -- explicit consideration of  29 degrees of freedom as
           vibrations may cause significant error
 Vibrational temperatures:     36.57    71.61    92.13   104.34   135.81
          (Kelvin)            201.20   203.71   209.87   256.20   268.25
                              277.77   300.21   333.12   341.15   393.91
                              398.33   423.08   444.83   463.61   503.14
                              527.62   547.95   552.31   594.40   654.27
                              693.19   794.39   831.55   864.47   964.67
                              970.67   979.02  1014.95  1103.46  1134.15
                             1153.97  1181.82  1356.31  1460.36  1472.62
                             1480.55  1526.53  1554.76  1577.46  1588.73
                             1632.96  1680.82  1724.42  1845.29  1882.24
                             1912.61  1930.12  1940.46  1972.68  2003.91
                             2070.19  2104.07  2120.10  2140.31  2142.39
                             2145.97  2176.97  2231.79  2244.33  2327.68
                             2347.59  2421.97  2450.65  4402.64  4409.46
                             4438.00  4474.35  4510.78  4526.39  4561.56
                             4582.05  5039.57  5143.73

 Zero-point correction=                           0.198839 (Hartree/Particle)
 Thermal correction to Energy=                    0.217060
 Thermal correction to Enthalpy=                  0.218004
 Thermal correction to Gibbs Free Energy=         0.152201
 Sum of electronic and zero-point Energies=          -1090.565685
 Sum of electronic and thermal Energies=             -1090.547464
 Sum of electronic and thermal Enthalpies=           -1090.546520
 Sum of electronic and thermal Free Energies=        -1090.612323

                     E (Thermal)             CV                S
                      KCal/Mol        Cal/Mol-Kelvin    Cal/Mol-Kelvin
 Total                  136.207             65.625            138.495
 Electronic               0.000              0.000              0.000
 Translational            0.889              2.981             42.690
 Rotational               0.889              2.981             33.289
 Vibrational            134.430             59.663             62.515
 Vibration     1          0.593              1.985              6.158
 Vibration     2          0.595              1.978              4.826
 Vibration     3          0.597              1.971              4.329
 Vibration     4          0.599              1.967              4.084
 Vibration     5          0.603              1.953              3.567
 Vibration     6          0.615              1.913              2.806
 Vibration     7          0.615              1.912              2.782
 Vibration     8          0.617              1.907              2.725
 Vibration     9          0.629              1.869              2.349
 Vibration    10          0.632              1.858              2.263
 Vibration    11          0.635              1.850              2.198
 Vibration    12          0.642              1.827              2.055
 Vibration    13          0.653              1.793              1.867
 Vibration    14          0.656              1.784              1.824
 Vibration    15          0.676              1.722              1.572
 Vibration    16          0.678              1.716              1.553
 Vibration    17          0.689              1.685              1.451
 Vibration    18          0.699              1.656              1.367
 Vibration    19          0.707              1.631              1.299
 Vibration    20          0.727              1.576              1.168
 Vibration    21          0.740              1.541              1.094
 Vibration    22          0.751              1.511              1.036
 Vibration    23          0.753              1.505              1.024
 Vibration    24          0.777              1.442              0.916
 Vibration    25          0.813              1.350              0.782
 Vibration    26          0.838              1.290              0.705
 Vibration    27          0.907              1.135              0.540
 Vibration    28          0.934              1.079              0.489
 Vibration    29          0.959              1.030              0.448

                           ! Non-Optimized Parameters !
 Normal termination of Gaussian 16 at Thu Aug 29 04:51:53 2024.
