 Gaussian 16, Revision B.01,
 Gaussian 16:  ES64L-G16RevB.01 20-Dec-2017

 ----------------------------------------------------------------------
 #P PBE1PBE/def2TZVP opt freq EmpiricalDispersion=GD3 Int=(grid=99590)
 scrf=(iefpcm, solvent=water)
 ----------------------------------------------------------------------

 ---------------
 pfp-OH_product2
 ---------------
 Symbolic Z-matrix:
 Charge =  0 Multiplicity = 1

 SCF Done:  E(RPBE1PBE) =  -803.148323809     A.U. after   11 cycles
 SCF Done:  E(RPBE1PBE) =  -803.155977546     A.U. after   10 cycles
 SCF Done:  E(RPBE1PBE) =  -803.156442793     A.U. after    9 cycles
 SCF Done:  E(RPBE1PBE) =  -803.156468719     A.U. after    8 cycles
 SCF Done:  E(RPBE1PBE) =  -803.156470411     A.U. after    7 cycles
 Optimization completed.
    -- Stationary point found.
 Normal termination of Gaussian 16 at Fri May  3 18:44:24 2024.

 ----------------------------------------------------------------------
 #P Geom=AllCheck Guess=TCheck SCRF=Check GenChk RPBE1PBE/def2TZVP Freq
 ----------------------------------------------------------------------

 Structure from the checkpoint file:  "/scratch/Gau-8691.chk"
 ---------------
 pfp-OH_product2
 ---------------
 Charge =  0 Multiplicity = 1

                         Standard orientation:
 ---------------------------------------------------------------------
 Center     Atomic      Atomic             Coordinates (Angstroms)
 Number     Number       Type             X           Y           Z
 ---------------------------------------------------------------------
      1          6           0        1.400522   -0.000000   -0.007187
      2          6           0        0.684044   -1.191227   -0.005081
      3          6           0        0.684044    1.191227   -0.005081
      4          6           0       -0.700310   -1.197787    0.000019
      5          6           0       -0.700310    1.197787    0.000019
      6          6           0       -1.394386    0.000000    0.002493
      7          8           0        2.754703   -0.000000   -0.088398
      8          1           0        3.145427   -0.000000    0.793696
      9          9           0        1.333601   -2.348079   -0.006846
     10          9           0        1.333601    2.348078   -0.006846
     11          9           0       -1.363997    2.346452    0.003307
     12          9           0       -1.363997   -2.346452    0.003307
     13          9           0       -2.719728    0.000000    0.007344
 ---------------------------------------------------------------------

 SCF Done:  E(RPBE1PBE) =  -803.156470411     A.U. after    1 cycles

 The electronic state is 1-A.
 Alpha  occ. eigenvalues --  -24.81944 -24.81769 -24.81768 -24.81453 -24.81453
 Alpha  occ. eigenvalues --  -19.25344 -10.34605 -10.34346 -10.34337 -10.34086
 Alpha  occ. eigenvalues --  -10.34086 -10.31900  -1.31175  -1.30484  -1.29860
 Alpha  occ. eigenvalues --   -1.29081  -1.28765  -1.11196  -0.93161  -0.81249
 Alpha  occ. eigenvalues --   -0.80864  -0.70085  -0.69875  -0.63366  -0.62845
 Alpha  occ. eigenvalues --   -0.61827  -0.58191  -0.57813  -0.56777  -0.55617
 Alpha  occ. eigenvalues --   -0.55482  -0.52935  -0.51970  -0.50098  -0.49711
 Alpha  occ. eigenvalues --   -0.47600  -0.47224  -0.46885  -0.44721  -0.42959
 Alpha  occ. eigenvalues --   -0.41524  -0.37414  -0.35301  -0.27649  -0.27550
 Alpha virt. eigenvalues --   -0.02152  -0.01672  -0.01624   0.05139   0.07696
 Alpha virt. eigenvalues --    0.11256   0.13333   0.16132   0.17807   0.18272
 Alpha virt. eigenvalues --    0.19085   0.20807   0.20922   0.21600   0.25419

 Mulliken charges:
               1
     1  C    0.073431
     2  C    0.184580
     3  C    0.184580
     4  C    0.156752
     5  C    0.156752
     6  C    0.164200
     7  O   -0.441397
     8  H    0.374736
     9  F   -0.171424
    10  F   -0.171424
    11  F   -0.171151
    12  F   -0.171151
    13  F   -0.168485
 Sum of Mulliken charges =  -0.00000

 Dipole moment (field-independent basis, Debye):
    X=              1.5505    Y=              0.0000    Z=              1.7835  Tot=              2.3632
 Quadrupole moment (field-independent basis, Debye-Ang):
   XX=            -63.8042   YY=            -71.0194   ZZ=            -59.7169
   XY=              0.0000   XZ=              5.9533   YZ=             -0.0000

  Exact polarizability: 114.826  -0.000 107.497   1.003   0.000  52.463
 Approx polarizability: 137.819  -0.000 133.267   0.581   0.000  61.167

 ******    1 imaginary frequencies (negative Signs) ******

                      1                      2                      3
                      A                      A                      A
 Frequencies --   -286.9446               137.0668               137.5983
 Red. masses --      1.0813                18.4726                11.1130
 Frc consts  --      0.0525                 0.2045                 0.1240
 IR Inten    --    179.4802                 0.0124                 1.6888

                      4                      5                      6
                      A                      A                      A
 Frequencies --    186.8500               214.7495               273.6692
 Red. masses --     13.3779                11.5310                16.8302
 Frc consts  --      0.2752                 0.3133                 0.7427
 IR Inten    --      1.2637                 4.4661                 0.1293

                      7                      8                      9
                      A                      A                      A
 Frequencies --    274.6313               291.8222               320.2097
 Red. masses --     18.2779                13.6158                12.5128
 Frc consts  --      0.8122                 0.6832                 0.7559
 IR Inten    --      0.0197                 0.2462                 0.5888

                     10                     11                     12
                      A                      A                      A
 Frequencies --    325.5928               375.4104               382.9824
 Red. masses --     16.4894                 9.1254                12.3276
 Frc consts  --      1.0299                 0.7577                 1.0653
 IR Inten    --      3.1002                 6.3138                 0.3628

                     13                     14                     15
                      A                      A                      A
 Frequencies --    449.8997               451.7867               575.9728
 Red. masses --     15.3386                13.6575                15.4006
 Frc consts  --      1.8292                 1.6424                 3.0102
 IR Inten    --      0.0258                 0.3990                 0.8369

                     16                     17                     18
                      A                      A                      A
 Frequencies --    611.1778               662.3174               674.1950
 Red. masses --     14.9773                 8.4181                12.1926
 Frc consts  --      3.2962                 2.1757                 3.2653
 IR Inten    --      0.6402                10.5305                 0.0254

                     19                     20                     21
                      A                      A                      A
 Frequencies --    723.5637               799.1077              1019.2238
 Red. masses --     10.2251                12.2427                14.2054
 Frc consts  --      3.1541                 4.6062                 8.6945
 IR Inten    --      4.2653                 0.0660               442.7070

                     22                     23                     24
                      A                      A                      A
 Frequencies --   1024.7561              1173.5061              1176.9483
 Red. masses --     13.8252                 5.4448                13.7369
 Frc consts  --      8.5538                 4.4177                11.2112
 IR Inten    --    456.4723                21.4079                 0.1431

                     25                     26                     27
                      A                      A                      A
 Frequencies --   1244.2521              1328.0095              1349.4155
 Red. masses --      1.5318                11.9998                 8.1867
 Frc consts  --      1.3972                12.4689                 8.7832
 IR Inten    --    128.2616                 0.3098                14.0912

                     28                     29                     30
                      A                      A                      A
 Frequencies --   1528.7768              1557.1978              1566.7089
 Red. masses --     10.3160                12.2780                10.7772
 Frc consts  --     14.2053                17.5414                15.5859
 IR Inten    --      0.4618               610.1142               483.4809

                     31                     32                     33
                      A                      A                      A
 Frequencies --   1688.8671              1704.0067              3810.6159
 Red. masses --     12.0344                11.7025                 1.0664
 Frc consts  --     20.2239                20.0204                 9.1232
 IR Inten    --      2.5284                 1.6855               199.8748

 - Thermochemistry -
 -------------------
 Temperature   298.150 Kelvin.  Pressure   1.00000 Atm.
 Atom     1 has atomic number  6 and mass  12.00000

 Molecular mass:   183.99476 amu.
 Principal axes and moments of inertia in atomic units:
                           1         2         3
     Eigenvalues --  1716.206791742.448643453.31677
           X            0.00000   0.99999   0.00532
           Y            1.00000  -0.00000  -0.00000
           Z           -0.00000  -0.00532   0.99999
 This molecule is an asymmetric top.
 Rotational symmetry number  1.
 Warning -- assumption of classical behavior for rotation
           may cause significant error
 Rotational temperatures (Kelvin)      0.05047     0.04971     0.02508
 Rotational constants (GHZ):           1.05159     1.03575     0.52261
    1 imaginary frequencies ignored.
 Zero-point vibrational energy     167721.8 (Joules/Mol)
                                   40.08646 (Kcal/Mol)
 Warning -- explicit consideration of  15 degrees of freedom as
           vibrations may cause significant error
 Vibrational temperatures:    197.21   197.97   268.84   308.98   393.75
          (Kelvin)            395.13   419.87   460.71   468.46   540.13
                              551.03   647.31   650.02   828.70   879.35
                              952.93   970.02  1041.05  1149.74  1466.44
                             1474.40  1688.41  1693.37  1790.20  1910.71
                             1941.51  2199.57  2240.46  2254.14  2429.90
                             2451.69  5482.63

 Zero-point correction=                           0.063882 (Hartree/Particle)
 Thermal correction to Energy=                    0.073390
 Thermal correction to Enthalpy=                  0.074334
 Thermal correction to Gibbs Free Energy=         0.028938
 Sum of electronic and zero-point Energies=           -803.092589
 Sum of electronic and thermal Energies=              -803.083080
 Sum of electronic and thermal Enthalpies=            -803.082136
 Sum of electronic and thermal Free Energies=         -803.127532

                     E (Thermal)             CV                S
                      KCal/Mol        Cal/Mol-Kelvin    Cal/Mol-Kelvin
 Total                   46.053             34.770             95.543
 Electronic               0.000              0.000              0.000
 Translational            0.889              2.981             41.536
 Rotational               0.889              2.981             30.713
 Vibrational             44.275             28.808             23.294
 Vibration     1          0.614              1.916              2.844
 Vibration     2          0.614              1.916              2.837
 Vibration     3          0.632              1.858              2.259
 Vibration     4          0.645              1.819              2.003
 Vibration     5          0.676              1.722              1.573
 Vibration     6          0.677              1.720              1.567
 Vibration     7          0.687              1.689              1.463
 Vibration     8          0.706              1.635              1.309
 Vibration     9          0.710              1.624              1.282
 Vibration    10          0.746              1.522              1.058
 Vibration    11          0.752              1.506              1.027
 Vibration    12          0.809              1.361              0.796
 Vibration    13          0.810              1.357              0.790
 Vibration    14          0.932              1.083              0.493
 Vibration    15          0.970              1.008              0.431

 Optimization completed.
    -- Stationary point found.
 Normal termination of Gaussian 16 at Fri May  3 18:49:22 2024.
