 Gaussian 16, Revision B.01,
 Gaussian 16:  ES64L-G16RevB.01 20-Dec-2017

 ----------------------------------------------------------------------
 #P PBE1PBE/def2TZVP opt freq EmpiricalDispersion=GD3 Int=(grid=99590)
 scrf=(iefpcm, solvent=water)
 ----------------------------------------------------------------------

 ------------------
 tfp-pyridine_inter
 ------------------
 Symbolic Z-matrix:
 Charge =  0 Multiplicity = 1

 SCF Done:  E(RPBE1PBE) =  -968.286302273     A.U. after   12 cycles
 SCF Done:  E(RPBE1PBE) =  -968.324690165     A.U. after   11 cycles
 SCF Done:  E(RPBE1PBE) =  -968.354423302     A.U. after   11 cycles
 SCF Done:  E(RPBE1PBE) =  -968.358754035     A.U. after   11 cycles
 SCF Done:  E(RPBE1PBE) =  -968.361644091     A.U. after   10 cycles
 SCF Done:  E(RPBE1PBE) =  -968.362952366     A.U. after   10 cycles
 SCF Done:  E(RPBE1PBE) =  -968.363592852     A.U. after   10 cycles
 SCF Done:  E(RPBE1PBE) =  -968.364156579     A.U. after    9 cycles
 SCF Done:  E(RPBE1PBE) =  -968.364668658     A.U. after   10 cycles
 SCF Done:  E(RPBE1PBE) =  -968.364812759     A.U. after    9 cycles
 SCF Done:  E(RPBE1PBE) =  -968.365211612     A.U. after    8 cycles
 SCF Done:  E(RPBE1PBE) =  -968.365224850     A.U. after    9 cycles
 SCF Done:  E(RPBE1PBE) =  -968.365220438     A.U. after    8 cycles
 SCF Done:  E(RPBE1PBE) =  -968.355008946     A.U. after   10 cycles
 SCF Done:  E(RPBE1PBE) =  -968.365221137     A.U. after    9 cycles
 SCF Done:  E(RPBE1PBE) =  -968.365225426     A.U. after    8 cycles
 SCF Done:  E(RPBE1PBE) =  -968.365225501     A.U. after    7 cycles
 SCF Done:  E(RPBE1PBE) =  -968.365225516     A.U. after    7 cycles
 SCF Done:  E(RPBE1PBE) =  -968.365225505     A.U. after    5 cycles
 Optimization completed.
    -- Stationary point found.
 Normal termination of Gaussian 16 at Sun Jul  7 10:02:58 2024.

 ----------------------------------------------------------------------
 #P Geom=AllCheck Guess=TCheck SCRF=Check GenChk RPBE1PBE/def2TZVP Freq
 ----------------------------------------------------------------------

 Structure from the checkpoint file:  "/scratch/Gau-824500.chk"
 ------------------
 tfp-pyridine_inter
 ------------------
 Charge =  0 Multiplicity = 1

                         Standard orientation:
 ---------------------------------------------------------------------
 Center     Atomic      Atomic             Coordinates (Angstroms)
 Number     Number       Type             X           Y           Z
 ---------------------------------------------------------------------
      1          1           0       -2.271610    1.923055    0.615241
      2          8           0       -1.514937   -1.352142    0.935250
      3          6           0       -1.752938   -1.174827   -0.220573
      4          7           0       -3.070481    1.389820    0.294126
      5          1           0       -3.574381    1.993562   -0.344103
      6          6           0       -3.918207    1.022119    1.418635
      7          1           0       -4.789313    0.473734    1.052350
      8          1           0       -3.366741    0.350448    2.080045
      9          1           0       -4.281447    1.867917    2.017424
     10          6           0       -2.954112   -1.595609   -0.983958
     11          1           0       -2.699824   -2.484227   -1.568194
     12          1           0       -3.755232   -1.835594   -0.290075
     13          1           0       -3.261052   -0.807464   -1.668016
     14          6           0        1.965864    1.461630   -0.032242
     15          6           0        0.713229    1.128963   -0.515668
     16          6           0        0.355972   -0.212295   -0.544913
     17          6           0        1.281668   -1.142186   -0.088378
     18          6           0        2.498186   -0.678679    0.376323
     19          7           0        2.828295    0.584267    0.402597
     20          8           0       -0.835751   -0.578526   -1.069616
     21          9           0       -0.124921    2.060698   -0.941513
     22          9           0        1.006597   -2.436113   -0.117297
     23          9           0        3.391284   -1.550712    0.818298
     24          9           0        2.322866    2.736195    0.001381
 ---------------------------------------------------------------------

 SCF Done:  E(RPBE1PBE) =  -968.365225505     A.U. after    1 cycles

 The electronic state is 1-A.
 Alpha  occ. eigenvalues --  -24.82112 -24.82110 -24.81700 -24.81680 -19.28973
 Alpha  occ. eigenvalues --  -19.21662 -14.42827 -14.36120 -10.37763 -10.37488
 Alpha  occ. eigenvalues --  -10.37471 -10.34915 -10.34908 -10.34228 -10.23301
 Alpha  occ. eigenvalues --  -10.23050  -1.31162  -1.31003  -1.29743  -1.29633
 Alpha  occ. eigenvalues --   -1.17634  -1.08657  -1.03500  -0.90243  -0.88116
 Alpha  occ. eigenvalues --   -0.82454  -0.79798  -0.72414  -0.71651  -0.67687
 Alpha  occ. eigenvalues --   -0.66029  -0.64084  -0.62108  -0.60237  -0.58356
 Alpha  occ. eigenvalues --   -0.56450  -0.56335  -0.53541  -0.53087  -0.52762
 Alpha  occ. eigenvalues --   -0.50866  -0.50663  -0.50254  -0.49519  -0.48179
 Alpha  occ. eigenvalues --   -0.46651  -0.45914  -0.45319  -0.44136  -0.43978
 Alpha  occ. eigenvalues --   -0.42536  -0.41452  -0.41289  -0.40656  -0.37626
 Alpha  occ. eigenvalues --   -0.36568  -0.35237  -0.32423  -0.31411  -0.28091
 Alpha  occ. eigenvalues --   -0.25631
 Alpha virt. eigenvalues --   -0.05169  -0.02032  -0.00267   0.01644   0.04965
 Alpha virt. eigenvalues --    0.06468   0.08355   0.08700   0.09685   0.11007
 Alpha virt. eigenvalues --    0.12787   0.13255   0.13879   0.14195   0.14436

 Mulliken charges:
               1
     1  H    0.236295
     2  O   -0.341822
     3  C    0.391083
     4  N   -0.571446
     5  H    0.240516
     6  C   -0.281530
     7  H    0.130374
     8  H    0.131835
     9  H    0.122538
    10  C   -0.384101
    11  H    0.170163
    12  H    0.151206
    13  H    0.155081
    14  C    0.241486
    15  C    0.108563
    16  C    0.161732
    17  C    0.165454
    18  C    0.238812
    19  N   -0.188900
    20  O   -0.227258
    21  F   -0.167634
    22  F   -0.168292
    23  F   -0.157084
    24  F   -0.157071
 Sum of Mulliken charges =  -0.00000

 Dipole moment (field-independent basis, Debye):
    X=             -4.5904    Y=              0.6874    Z=             -2.3789  Tot=              5.2157
 Quadrupole moment (field-independent basis, Debye-Ang):
   XX=            -85.9986   YY=            -90.3028   ZZ=            -89.2381
   XY=             -2.8336   XZ=              0.5297   YZ=              5.2355

  Exact polarizability: 168.335   7.090 161.611  16.395  -4.621 116.730
 Approx polarizability: 178.919   3.064 189.971  23.425  -9.606 136.673

                      1                      2                      3
                      A                      A                      A
 Frequencies --     20.0840                25.8748                45.5557
 Red. masses --      2.7912                 3.3159                 4.4376
 Frc consts  --      0.0007                 0.0013                 0.0054
 IR Inten    --      0.5667                 1.1224                 0.4921

                      4                      5                      6
                      A                      A                      A
 Frequencies --     62.2063                72.7439                88.5865
 Red. masses --      3.0202                 3.0436                 3.0245
 Frc consts  --      0.0069                 0.0095                 0.0140
 IR Inten    --      6.8031                 2.3987                 4.7644

                      7                      8                      9
                      A                      A                      A
 Frequencies --     90.0346                92.2735               123.6110
 Red. masses --      1.8728                 1.9097                 7.7775
 Frc consts  --      0.0089                 0.0096                 0.0700
 IR Inten    --     11.6863                 1.4456                 0.5971

                     10                     11                     12
                      A                      A                      A
 Frequencies --    130.7816               141.1221               174.9398
 Red. masses --      3.4302                 2.0185                13.9209
 Frc consts  --      0.0346                 0.0237                 0.2510
 IR Inten    --      1.3134                 4.4562                 0.3601

                     13                     14                     15
                      A                      A                      A
 Frequencies --    238.8708               268.1031               288.7426
 Red. masses --     14.0249                 8.3929                13.6725
 Frc consts  --      0.4715                 0.3554                 0.6716
 IR Inten    --      4.1339                 5.6306                 0.9029

                     16                     17                     18
                      A                      A                      A
 Frequencies --    310.4830               324.9934               329.0120
 Red. masses --      6.4764                 7.4330                 1.1423
 Frc consts  --      0.3678                 0.4626                 0.0729
 IR Inten    --      1.7599                 3.3602                64.8615

                     19                     20                     21
                      A                      A                      A
 Frequencies --    367.6251               388.3410               448.3552
 Red. masses --      9.7781                 8.9987                12.6427
 Frc consts  --      0.7786                 0.7996                 1.4974
 IR Inten    --      4.5763                 2.4731                 0.7156

                     22                     23                     24
                      A                      A                      A
 Frequencies --    463.7767               502.2508               570.9850
 Red. masses --     15.6349                 8.4091                 3.4350
 Frc consts  --      1.9814                 1.2498                 0.6598
 IR Inten    --      0.4473                15.8276                23.4830

                     25                     26                     27
                      A                      A                      A
 Frequencies --    587.3000               616.5583               705.6013
 Red. masses --      5.4372                 9.2766                13.0598
 Frc consts  --      1.1050                 2.0777                 3.8309
 IR Inten    --     27.1490                14.6271                 3.3178

                     28                     29                     30
                      A                      A                      A
 Frequencies --    713.4176               724.9165               756.8350
 Red. masses --     12.1740                10.7439                11.7171
 Frc consts  --      3.6506                 3.3265                 3.9543
 IR Inten    --      0.2493                 3.1160                 2.4319

                     31                     32                     33
                      A                      A                      A
 Frequencies --    786.0159               860.7801               884.1516
 Red. masses --      9.2066                 1.2196                 6.4844
 Frc consts  --      3.3513                 0.5324                 2.9866
 IR Inten    --     10.2957               192.8815               104.4742

                     34                     35                     36
                      A                      A                      A
 Frequencies --    978.2863               999.2033              1019.1130
 Red. masses --      1.0616                 5.6436                 2.4195
 Frc consts  --      0.5986                 3.3198                 1.4805
 IR Inten    --      5.0658               330.2903                44.1962

                     37                     38                     39
                      A                      A                      A
 Frequencies --   1049.5500              1084.0310              1107.1416
 Red. masses --      1.7704                 3.5797                12.3191
 Frc consts  --      1.1490                 2.4785                 8.8968
 IR Inten    --     44.2364                21.1251               677.2436

                     40                     41                     42
                      A                      A                      A
 Frequencies --   1175.5981              1185.6479              1190.6894
 Red. masses --      1.4387                 9.8508                 3.3743
 Frc consts  --      1.1715                 8.1589                 2.8186
 IR Inten    --     21.5132                22.1114               518.1639

                     43                     44                     45
                      A                      A                      A
 Frequencies --   1313.8250              1344.7007              1360.2752
 Red. masses --     10.4665                 1.3539                12.0757
 Frc consts  --     10.6445                 1.4424                13.1648
 IR Inten    --     72.5818                 1.2568                40.0156

                     46                     47                     48
                      A                      A                      A
 Frequencies --   1385.7376              1438.4804              1445.6221
 Red. masses --      1.3604                 1.0502                 1.1679
 Frc consts  --      1.5391                 1.2804                 1.4380
 IR Inten    --    112.0101                24.5046                 3.1317

                     49                     50                     51
                      A                      A                      A
 Frequencies --   1457.3910              1462.1264              1481.6754
 Red. masses --      1.0592                12.0882                 1.0493
 Frc consts  --      1.3256                15.2259                 1.3573
 IR Inten    --     19.9461                14.7954                 6.4129

                     52                     53                     54
                      A                      A                      A
 Frequencies --   1499.7269              1521.2694              1548.9873
 Red. masses --      1.0317                12.5453                12.2997
 Frc consts  --      1.3671                17.1058                17.3877
 IR Inten    --      9.1514              1085.3237               188.1534

                     55                     56                     57
                      A                      A                      A
 Frequencies --   1646.5846              1684.5848              1693.4534
 Red. masses --      1.0860                12.3180                12.1137
 Frc consts  --      1.7348                20.5956                20.4679
 IR Inten    --     38.1350                 5.6604               138.0556

                     58                     59                     60
                      A                      A                      A
 Frequencies --   1852.1579              3001.2832              3073.9614
 Red. masses --     12.0761                 1.0498                 1.0416
 Frc consts  --     24.4081                 5.5717                 5.7989
 IR Inten    --    387.8647               113.3096                 0.8044

                     61                     62                     63
                      A                      A                      A
 Frequencies --   3082.4836              3120.3105              3160.2117
 Red. masses --      1.0848                 1.1030                 1.0928
 Frc consts  --      6.0732                 6.3274                 6.4301
 IR Inten    --     46.3432                36.2302                 2.8826

                     64                     65                     66
                      A                      A                      A
 Frequencies --   3202.3282              3528.4694              3604.2149
 Red. masses --      1.1058                 1.0501                 1.0927
 Frc consts  --      6.6812                 7.7029                 8.3629
 IR Inten    --      2.5930                 0.7244                 7.0162

 - Thermochemistry -
 -------------------
 Temperature   298.150 Kelvin.  Pressure   1.00000 Atm.
 Atom     1 has atomic number  1 and mass   1.00783

 Molecular mass:   240.05219 amu.
 Principal axes and moments of inertia in atomic units:
                           1         2         3
     Eigenvalues --  2562.895234752.672326420.32361
           X            0.99990  -0.00769  -0.01225
           Y            0.00806   0.99951   0.03033
           Z            0.01201  -0.03042   0.99946
 This molecule is an asymmetric top.
 Rotational symmetry number  1.
 Warning -- assumption of classical behavior for rotation
           may cause significant error
 Rotational temperatures (Kelvin)      0.03380     0.01822     0.01349
 Rotational constants (GHZ):           0.70418     0.37973     0.28110
 Zero-point vibrational energy     430081.7 (Joules/Mol)
                                  102.79200 (Kcal/Mol)
 Warning -- explicit consideration of  26 degrees of freedom as
           vibrations may cause significant error
 Vibrational temperatures:     28.90    37.23    65.54    89.50   104.66
          (Kelvin)            127.46   129.54   132.76   177.85   188.17
                              203.04   251.70   343.68   385.74   415.44
                              446.72   467.59   473.37   528.93   558.74
                              645.08   667.27   722.63   821.52   844.99
                              887.09  1015.20  1026.45  1042.99  1088.92
                             1130.90  1238.47  1272.10  1407.54  1437.63
                             1466.28  1510.07  1559.68  1592.93  1691.42
                             1705.88  1713.14  1890.30  1934.72  1957.13
                             1993.77  2069.65  2079.93  2096.86  2103.67
                             2131.80  2157.77  2188.77  2228.65  2369.07
                             2423.74  2436.50  2664.84  4318.18  4422.74
                             4435.01  4489.43  4546.84  4607.44  5076.68
                             5185.66

 Zero-point correction=                           0.163809 (Hartree/Particle)
 Thermal correction to Energy=                    0.181184
 Thermal correction to Enthalpy=                  0.182129
 Thermal correction to Gibbs Free Energy=         0.115438
 Sum of electronic and zero-point Energies=           -968.201416
 Sum of electronic and thermal Energies=              -968.184041
 Sum of electronic and thermal Enthalpies=            -968.183097
 Sum of electronic and thermal Free Energies=         -968.249788

                     E (Thermal)             CV                S
                      KCal/Mol        Cal/Mol-Kelvin    Cal/Mol-Kelvin
 Total                  113.695             58.428            140.363
 Electronic               0.000              0.000              0.000
 Translational            0.889              2.981             42.328
 Rotational               0.889              2.981             32.725
 Vibrational            111.917             52.467             65.309
 Vibration     1          0.593              1.986              6.626
 Vibration     2          0.593              1.985              6.123
 Vibration     3          0.595              1.979              5.002
 Vibration     4          0.597              1.972              4.386
 Vibration     5          0.599              1.967              4.078
 Vibration     6          0.601              1.957              3.691
 Vibration     7          0.602              1.956              3.659
 Vibration     8          0.602              1.955              3.611
 Vibration     9          0.610              1.929              3.043
 Vibration    10          0.612              1.923              2.935
 Vibration    11          0.615              1.912              2.789
 Vibration    12          0.627              1.873              2.382
 Vibration    13          0.657              1.781              1.811
 Vibration    14          0.673              1.732              1.608
 Vibration    15          0.685              1.695              1.481
 Vibration    16          0.699              1.654              1.360
 Vibration    17          0.709              1.625              1.285
 Vibration    18          0.712              1.618              1.265
 Vibration    19          0.740              1.539              1.090
 Vibration    20          0.757              1.495              1.007
 Vibration    21          0.807              1.365              0.801
 Vibration    22          0.821              1.330              0.755
 Vibration    23          0.858              1.245              0.653
 Vibration    24          0.927              1.094              0.502
 Vibration    25          0.944              1.059              0.472
 Vibration    26          0.976              0.997              0.422

 Optimization completed.
    -- Stationary point found.
 Normal termination of Gaussian 16 at Sun Jul  7 10:15:48 2024.
