 Gaussian 16, Revision B.01,
 Gaussian 16:  ES64L-G16RevB.01 20-Dec-2017

 ----------------------------------------------------------------------
 #P PBE1PBE/def2TZVP opt freq EmpiricalDispersion=GD3 Int=(grid=99590)
 scrf=(iefpcm, solvent=water)
 ----------------------------------------------------------------------

 ----------------------
 pfp_ester-ome reactant
 ----------------------
 Symbolic Z-matrix:
 Charge =  0 Multiplicity = 1

 SCF Done:  E(RPBE1PBE) =  -1070.11189995     A.U. after   12 cycles
 SCF Done:  E(RPBE1PBE) =  -1070.13594841     A.U. after   11 cycles
 SCF Done:  E(RPBE1PBE) =  -1070.13767546     A.U. after   10 cycles
 SCF Done:  E(RPBE1PBE) =  -1070.13783967     A.U. after    9 cycles
 SCF Done:  E(RPBE1PBE) =  -1070.13697435     A.U. after   10 cycles
 SCF Done:  E(RPBE1PBE) =  -1070.13787102     A.U. after    8 cycles
 SCF Done:  E(RPBE1PBE) =  -1070.13787341     A.U. after    7 cycles
 SCF Done:  E(RPBE1PBE) =  -1070.13787435     A.U. after    7 cycles
 SCF Done:  E(RPBE1PBE) =  -1070.13787460     A.U. after    7 cycles
 SCF Done:  E(RPBE1PBE) =  -1070.13787470     A.U. after    6 cycles
 SCF Done:  E(RPBE1PBE) =  -1070.13795563     A.U. after   10 cycles
 SCF Done:  E(RPBE1PBE) =  -1070.13797167     A.U. after    9 cycles
 SCF Done:  E(RPBE1PBE) =  -1070.13797657     A.U. after    8 cycles
 SCF Done:  E(RPBE1PBE) =  -1070.13797792     A.U. after    9 cycles
 SCF Done:  E(RPBE1PBE) =  -1070.13787865     A.U. after   10 cycles
 SCF Done:  E(RPBE1PBE) =  -1070.13798154     A.U. after   10 cycles
 SCF Done:  E(RPBE1PBE) =  -1070.13798684     A.U. after    9 cycles
 SCF Done:  E(RPBE1PBE) =  -1070.13798832     A.U. after    7 cycles
 SCF Done:  E(RPBE1PBE) =  -1070.13798847     A.U. after    7 cycles
 Optimization completed.
    -- Stationary point found.
 Normal termination of Gaussian 16 at Mon Aug 19 19:04:47 2024.

 ----------------------------------------------------------------------
 #P Geom=AllCheck Guess=TCheck SCRF=Check GenChk RPBE1PBE/def2TZVP Freq
 ----------------------------------------------------------------------

 Structure from the checkpoint file:  "/scratch/Gau-297364.chk"
 ----------------------
 pfp_ester-ome reactant
 ----------------------
 Charge =  0 Multiplicity = 1

                         Standard orientation:
 ---------------------------------------------------------------------
 Center     Atomic      Atomic             Coordinates (Angstroms)
 Number     Number       Type             X           Y           Z
 ---------------------------------------------------------------------
      1          8           0       -1.511227   -0.689005    1.816855
      2          6           0       -2.014408   -0.300698    0.804413
      3          6           0       -3.498598   -0.233957    0.583064
      4          8           0       -1.301970    0.123318   -0.272192
      5          6           0        0.062048    0.072742   -0.168471
      6          6           0        0.742589   -1.132732   -0.238718
      7          6           0        0.783539    1.250077   -0.056083
      8          6           0        2.125147   -1.165076   -0.198011
      9          6           0        2.167579    1.227434   -0.020539
     10          6           0        2.837866    0.017942   -0.090201
     11          9           0        0.065149   -2.265385   -0.348649
     12          9           0        0.149003    2.409882    0.018933
     13          9           0        2.768024   -2.321181   -0.264761
     14          9           0        2.850266    2.357709    0.083180
     15          9           0        4.160255   -0.008314   -0.055117
     16          1           0       -3.908157    0.360997    1.412645
     17          1           0       -3.874214   -1.260340    0.712912
     18          8           0       -3.835151    0.293626   -0.658420
     19          6           0       -5.233290    0.339439   -0.847211
     20          1           0       -5.716139    0.970071   -0.090603
     21          1           0       -5.410536    0.764754   -1.834001
     22          1           0       -5.673279   -0.664420   -0.802622
 ---------------------------------------------------------------------

 SCF Done:  E(RPBE1PBE) =  -1070.13798847     A.U. after    1 cycles

 The electronic state is 1-A.
 Alpha  occ. eigenvalues --  -24.82341 -24.82236 -24.82167 -24.82161 -24.82146
 Alpha  occ. eigenvalues --  -19.29743 -19.23099 -19.22295 -10.38219 -10.35215
 Alpha  occ. eigenvalues --  -10.35067 -10.35063 -10.34913 -10.34900 -10.33005
 Alpha  occ. eigenvalues --  -10.29639 -10.26645  -1.31687  -1.31092  -1.30552
 Alpha  occ. eigenvalues --   -1.29728  -1.29297  -1.18454  -1.09178  -1.09147
 Alpha  occ. eigenvalues --   -0.94173  -0.83524  -0.81981  -0.78978  -0.72239
 Alpha  occ. eigenvalues --   -0.70652  -0.69039  -0.66032  -0.63799  -0.63207
 Alpha  occ. eigenvalues --   -0.60280  -0.58457  -0.57610  -0.56879  -0.56633
 Alpha  occ. eigenvalues --   -0.55017  -0.53976  -0.53490  -0.52702  -0.52102
 Alpha  occ. eigenvalues --   -0.50651  -0.50487  -0.50066  -0.48228  -0.47940
 Alpha  occ. eigenvalues --   -0.47255  -0.46642  -0.45142  -0.44022  -0.42260
 Alpha  occ. eigenvalues --   -0.42064  -0.41074  -0.38389  -0.36697  -0.36023
 Alpha  occ. eigenvalues --   -0.32714  -0.29189  -0.28460  -0.28097
 Alpha virt. eigenvalues --   -0.03209  -0.02239  -0.01886  -0.01143   0.04624
 Alpha virt. eigenvalues --    0.07232   0.08021   0.08952   0.09669   0.12073
 Alpha virt. eigenvalues --    0.12352   0.13096   0.14791   0.15291   0.15746

 Mulliken charges:
               1
     1  O   -0.349213
     2  C    0.354296
     3  C   -0.084678
     4  O   -0.204472
     5  C    0.118230
     6  C    0.191979
     7  C    0.142170
     8  C    0.167907
     9  C    0.167230
    10  C    0.156703
    11  F   -0.167346
    12  F   -0.164292
    13  F   -0.166343
    14  F   -0.166630
    15  F   -0.163047
    16  H    0.144714
    17  H    0.143689
    18  O   -0.286400
    19  C   -0.242651
    20  H    0.129591
    21  H    0.148941
    22  H    0.129622
 Sum of Mulliken charges =  -0.00000

 Dipole moment (field-independent basis, Debye):
    X=             -3.9252    Y=              0.2169    Z=             -0.8624  Tot=              4.0246
 Quadrupole moment (field-independent basis, Debye-Ang):
   XX=            -73.1345   YY=            -97.8195   ZZ=            -94.9747
   XY=              0.5315   XZ=             -0.8798   YZ=              1.8748

  Exact polarizability: 182.677   0.361 148.780  -0.027  -1.233 105.473
 Approx polarizability: 193.860  -0.496 180.340   2.872  -1.415 121.717

                      1                      2                      3
                      A                      A                      A
 Frequencies --     22.9885                42.1198                50.6141
 Red. masses --      4.9783                 5.4784                 2.6362
 Frc consts  --      0.0016                 0.0057                 0.0040
 IR Inten    --      0.0935                 1.0876                16.2198

                      4                      5                      6
                      A                      A                      A
 Frequencies --     55.5587               100.3541               126.7751
 Red. masses --      8.1005                 3.3495                 6.9486
 Frc consts  --      0.0147                 0.0199                 0.0658
 IR Inten    --      0.8451                 1.1119                 0.5795

                      7                      8                      9
                      A                      A                      A
 Frequencies --    138.6524               153.9602               189.3617
 Red. masses --     18.0760                13.0816                17.0862
 Frc consts  --      0.2047                 0.1827                 0.3610
 IR Inten    --      0.0349                 0.5988                 0.2149

                     10                     11                     12
                      A                      A                      A
 Frequencies --    228.2699               241.3368               273.0753
 Red. masses --      1.1575                12.3711                14.2603
 Frc consts  --      0.0355                 0.4245                 0.6265
 IR Inten    --      5.7262                 5.5772                 1.3575

                     13                     14                     15
                      A                      A                      A
 Frequencies --    275.1638               292.1169               300.8167
 Red. masses --     18.0021                11.1461                 6.2036
 Frc consts  --      0.8031                 0.5604                 0.3308
 IR Inten    --      0.2557                 0.9184                 6.7508

                     16                     17                     18
                      A                      A                      A
 Frequencies --    325.4258               343.5418               385.0213
 Red. masses --     12.9195                 8.2204                12.6619
 Frc consts  --      0.8061                 0.5716                 1.1059
 IR Inten    --      2.2104                 1.5931                 0.0665

                     19                     20                     21
                      A                      A                      A
 Frequencies --    403.6866               448.7397               454.0844
 Red. masses --     12.5490                15.0774                 9.9731
 Frc consts  --      1.2049                 1.7888                 1.2116
 IR Inten    --      1.6502                 0.0772                 3.7990

                     22                     23                     24
                      A                      A                      A
 Frequencies --    486.3182               568.4938               598.9265
 Red. masses --     10.2607                 9.0597                 7.7601
 Frc consts  --      1.4298                 1.7251                 1.6401
 IR Inten    --     12.3737                27.8406                 9.7101

                     25                     26                     27
                      A                      A                      A
 Frequencies --    599.8339               658.1288               675.5785
 Red. masses --      3.8031                11.5728                12.1479
 Frc consts  --      0.8062                 2.9533                 3.2667
 IR Inten    --     13.6439                 1.7864                 0.0944

                     28                     29                     30
                      A                      A                      A
 Frequencies --    730.1210               777.1959               802.4169
 Red. masses --     10.4672                 6.8719                11.2205
 Frc consts  --      3.2875                 2.4456                 4.2566
 IR Inten    --      0.5360                 7.5992                 2.3941

                     31                     32                     33
                      A                      A                      A
 Frequencies --    907.7626              1023.6725              1026.4580
 Red. masses --      9.8107                 2.3575                 7.9115
 Frc consts  --      4.7632                 1.4555                 4.9112
 IR Inten    --     40.6026                61.5108               374.6401

                     34                     35                     36
                      A                      A                      A
 Frequencies --   1033.4417              1036.2060              1156.0196
 Red. masses --     11.9043                 4.2687                 3.4484
 Frc consts  --      7.4908                 2.7004                 2.7152
 IR Inten    --    433.5228                63.7505               445.2091

                     37                     38                     39
                      A                      A                      A
 Frequencies --   1179.5044              1179.9007              1185.3537
 Red. masses --      1.2863                12.4720                13.6798
 Frc consts  --      1.0544                10.2300                11.3246
 IR Inten    --      3.3541                 6.8382                 0.0669

                     40                     41                     42
                      A                      A                      A
 Frequencies --   1238.4402              1257.4922              1272.8671
 Red. masses --      2.1083                 4.6944                 1.0938
 Frc consts  --      1.9052                 4.3736                 1.0442
 IR Inten    --    186.0139               500.0639                 9.3492

                     43                     44                     45
                      A                      A                      A
 Frequencies --   1338.9587              1344.5689              1404.4689
 Red. masses --     11.8875                11.9972                 1.5105
 Frc consts  --     12.5567                12.7789                 1.7555
 IR Inten    --      2.7124                 8.9548                43.5677

                     46                     47                     48
                      A                      A                      A
 Frequencies --   1455.4897              1474.9208              1479.4878
 Red. masses --      1.0817                 1.0410                 1.1177
 Frc consts  --      1.3502                 1.3342                 1.4414
 IR Inten    --     11.1261                14.4307                13.6087

                     49                     50                     51
                      A                      A                      A
 Frequencies --   1495.1467              1521.9432              1564.6145
 Red. masses --      1.1002                12.6494                12.3177
 Frc consts  --      1.4491                17.2630                17.7662
 IR Inten    --      2.8498                20.4152               507.4772

                     52                     53                     54
                      A                      A                      A
 Frequencies --   1566.1980              1698.8169              1704.5036
 Red. masses --     12.2998                12.0368                12.0286
 Frc consts  --     17.7763                20.4670                20.5903
 IR Inten    --    564.4903                 0.8364                10.0808

                     55                     56                     57
                      A                      A                      A
 Frequencies --   1839.2833              2998.7277              3007.9745
 Red. masses --     12.5849                 1.0545                 1.0373
 Frc consts  --     25.0840                 5.5868                 5.5296
 IR Inten    --    359.8264                47.0936                62.7078

                     58                     59                     60
                      A                      A                      A
 Frequencies --   3031.0718              3066.8496              3151.2812
 Red. masses --      1.1016                 1.1055                 1.0996
 Frc consts  --      5.9629                 6.1260                 6.4334
 IR Inten    --     30.2712                55.9579                26.5520

 - Thermochemistry -
 -------------------
 Temperature   298.150 Kelvin.  Pressure   1.00000 Atm.
 Atom     1 has atomic number  8 and mass  15.99491

 Molecular mass:   256.01589 amu.
 Principal axes and moments of inertia in atomic units:
                           1         2         3
     Eigenvalues --  2120.581626741.370528195.13198
           X            0.99999  -0.00219   0.00437
           Y            0.00223   0.99997  -0.00737
           Z           -0.00435   0.00738   0.99996
 This molecule is an asymmetric top.
 Rotational symmetry number  1.
 Warning -- assumption of classical behavior for rotation
           may cause significant error
 Rotational temperatures (Kelvin)      0.04084     0.01285     0.01057
 Rotational constants (GHZ):           0.85106     0.26771     0.22022
 Zero-point vibrational energy     355231.7 (Joules/Mol)
                                   84.90241 (Kcal/Mol)
 Warning -- explicit consideration of  25 degrees of freedom as
           vibrations may cause significant error
 Vibrational temperatures:     33.08    60.60    72.82    79.94   144.39
          (Kelvin)            182.40   199.49   221.51   272.45   328.43
                              347.23   392.89   395.90   420.29   432.81
                              468.22   494.28   553.96   580.81   645.64
                              653.33   699.70   817.94   861.72   863.03
                              946.90   972.01  1050.48  1118.21  1154.50
                             1306.07  1472.84  1476.84  1486.89  1490.87
                             1663.25  1697.04  1697.61  1705.46  1781.84
                             1809.25  1831.37  1926.46  1934.53  2020.72
                             2094.13  2122.08  2128.65  2151.18  2189.74
                             2251.13  2253.41  2444.22  2452.40  2646.32
                             4314.50  4327.80  4361.04  4412.51  4533.99

 Zero-point correction=                           0.135301 (Hartree/Particle)
 Thermal correction to Energy=                    0.151130
 Thermal correction to Enthalpy=                  0.152074
 Thermal correction to Gibbs Free Energy=         0.089916
 Sum of electronic and zero-point Energies=          -1070.002688
 Sum of electronic and thermal Energies=             -1069.986858
 Sum of electronic and thermal Enthalpies=           -1069.985914
 Sum of electronic and thermal Free Energies=        -1070.048072

                     E (Thermal)             CV                S
                      KCal/Mol        Cal/Mol-Kelvin    Cal/Mol-Kelvin
 Total                   94.836             55.280            130.822
 Electronic               0.000              0.000              0.000
 Translational            0.889              2.981             42.520
 Rotational               0.889              2.981             33.127
 Vibrational             93.058             49.318             55.176
 Vibration     1          0.593              1.985              6.358
 Vibration     2          0.595              1.980              5.157
 Vibration     3          0.595              1.977              4.793
 Vibration     4          0.596              1.975              4.609
 Vibration     5          0.604              1.949              3.447
 Vibration     6          0.611              1.926              2.994
 Vibration     7          0.614              1.915              2.822
 Vibration     8          0.619              1.898              2.623
 Vibration     9          0.633              1.855              2.234
 Vibration    10          0.651              1.798              1.893
 Vibration    11          0.658              1.777              1.793
 Vibration    12          0.676              1.723              1.577
 Vibration    13          0.677              1.719              1.564
 Vibration    14          0.687              1.688              1.462
 Vibration    15          0.693              1.672              1.412
 Vibration    16          0.710              1.625              1.283
 Vibration    17          0.722              1.588              1.196
 Vibration    18          0.754              1.502              1.019
 Vibration    19          0.769              1.462              0.949
 Vibration    20          0.808              1.364              0.800
 Vibration    21          0.813              1.352              0.784
 Vibration    22          0.842              1.280              0.693
 Vibration    23          0.924              1.099              0.507
 Vibration    24          0.957              1.034              0.452
 Vibration    25          0.958              1.032              0.450

                           ! Non-Optimized Parameters !
 Normal termination of Gaussian 16 at Mon Aug 19 19:18:53 2024.
