 Gaussian 16, Revision B.01,
 Gaussian 16:  ES64L-G16RevB.01 20-Dec-2017

 ----------------------------------------------------------------------
 #P PBE1PBE/def2TZVP opt=(calcfc, ts, noeigentest) freq EmpiricalDisper
 sion=GD3 Int=(grid=99590) scrf=(iefpcm, solvent=water)
 ----------------------------------------------------------------------

 -----------------
 pfp-cf3_ester ts1
 -----------------
 Symbolic Z-matrix:
 Charge =  0 Multiplicity = 1

 SCF Done:  E(RPBE1PBE) =  -1349.07116204     A.U. after   12 cycles
 SCF Done:  E(RPBE1PBE) =  -1349.07392787     A.U. after   11 cycles
 SCF Done:  E(RPBE1PBE) =  -1349.07531666     A.U. after   10 cycles
 SCF Done:  E(RPBE1PBE) =  -1349.07549708     A.U. after   10 cycles
 SCF Done:  E(RPBE1PBE) =  -1349.07542980     A.U. after   10 cycles
 SCF Done:  E(RPBE1PBE) =  -1349.07559592     A.U. after   10 cycles
 SCF Done:  E(RPBE1PBE) =  -1349.07568450     A.U. after   10 cycles
 SCF Done:  E(RPBE1PBE) =  -1349.07544560     A.U. after   10 cycles
 SCF Done:  E(RPBE1PBE) =  -1349.07561289     A.U. after   10 cycles
 SCF Done:  E(RPBE1PBE) =  -1349.07457334     A.U. after   13 cycles
 SCF Done:  E(RPBE1PBE) =  -1349.07582041     A.U. after   10 cycles
 SCF Done:  E(RPBE1PBE) =  -1349.07588525     A.U. after   10 cycles
 SCF Done:  E(RPBE1PBE) =  -1349.07588859     A.U. after    8 cycles
 SCF Done:  E(RPBE1PBE) =  -1349.07588886     A.U. after    7 cycles
 SCF Done:  E(RPBE1PBE) =  -1349.07588866     A.U. after    6 cycles
 SCF Done:  E(RPBE1PBE) =  -1349.07588890     A.U. after    6 cycles
 SCF Done:  E(RPBE1PBE) =  -1349.07588751     A.U. after    9 cycles
 SCF Done:  E(RPBE1PBE) =  -1349.07588904     A.U. after    9 cycles
 SCF Done:  E(RPBE1PBE) =  -1349.07588902     A.U. after    6 cycles
 Optimization completed.
    -- Stationary point found.
 Normal termination of Gaussian 16 at Wed Aug 28 20:28:48 2024.

 ----------------------------------------------------------------------
 #P Geom=AllCheck Guess=TCheck SCRF=Check GenChk RPBE1PBE/def2TZVP Freq
 ----------------------------------------------------------------------

 Structure from the checkpoint file:  "/scratch/Gau-1835424.chk"
 -----------------
 pfp-cf3_ester ts1
 -----------------
 Charge =  0 Multiplicity = 1

                         Standard orientation:
 ---------------------------------------------------------------------
 Center     Atomic      Atomic             Coordinates (Angstroms)
 Number     Number       Type             X           Y           Z
 ---------------------------------------------------------------------
      1          1           0       -1.868202    2.243673   -0.487486
      2          8           0       -1.384162   -0.445709    1.422774
      3          6           0       -1.725453   -0.135314    0.307484
      4          7           0       -2.238743    1.820280    0.356041
      5          1           0       -3.243954    1.956105    0.352423
      6          6           0       -1.643961    2.388933    1.557186
      7          1           0       -1.977583    1.813688    2.420271
      8          1           0       -0.559227    2.313617    1.497374
      9          1           0       -1.919401    3.436851    1.690593
     10          6           0       -3.069745   -0.611257   -0.274660
     11          8           0       -0.826359   -0.056681   -0.766543
     12          6           0        0.495362   -0.087026   -0.447985
     13          6           0        1.256026    1.068656   -0.546670
     14          6           0        1.127030   -1.269274   -0.087125
     15          6           0        2.616282    1.053396   -0.292498
     16          6           0        2.485539   -1.294828    0.175513
     17          6           0        3.231159   -0.132030    0.072461
     18          9           0        0.673492    2.212343   -0.889045
     19          9           0        0.430897   -2.392486   -0.005407
     20          9           0        3.328132    2.166356   -0.393630
     21          9           0        3.077228   -2.429698    0.519446
     22          9           0        4.531504   -0.155369    0.319064
     23          9           0       -3.002303   -1.922485   -0.523190
     24          9           0       -3.402826    0.001548   -1.410495
     25          9           0       -4.048314   -0.410689    0.605751
 ---------------------------------------------------------------------

 SCF Done:  E(RPBE1PBE) =  -1349.07588902     A.U. after    1 cycles

 The electronic state is 1-A.
 Alpha  occ. eigenvalues --  -24.82313 -24.82230 -24.82091 -24.82024 -24.81970
 Alpha  occ. eigenvalues --  -24.81936 -24.81850 -24.81786 -19.27931 -19.19905
 Alpha  occ. eigenvalues --  -14.42686 -10.48382 -10.39093 -10.35037 -10.34822
 Alpha  occ. eigenvalues --  -10.34757 -10.34747 -10.34682 -10.32639 -10.25268
 Alpha  occ. eigenvalues --   -1.37022  -1.31559  -1.30962  -1.30392  -1.29584
 Alpha  occ. eigenvalues --   -1.29151  -1.27934  -1.27728  -1.16293  -1.07441
 Alpha  occ. eigenvalues --   -0.95600  -0.93827  -0.82959  -0.81773  -0.78114
 Alpha  occ. eigenvalues --   -0.71916  -0.70891  -0.70435  -0.67518  -0.64029
 Alpha  occ. eigenvalues --   -0.63633  -0.63291  -0.63213  -0.61983  -0.59707
 Alpha  occ. eigenvalues --   -0.58292  -0.57448  -0.56833  -0.56011  -0.54953
 Alpha  occ. eigenvalues --   -0.53421  -0.52854  -0.52516  -0.51507  -0.50596
 Alpha  occ. eigenvalues --   -0.50542  -0.50043  -0.49888  -0.48543  -0.48154
 Alpha  occ. eigenvalues --   -0.48050  -0.47446  -0.46692  -0.45834  -0.45207
 Alpha  occ. eigenvalues --   -0.44630  -0.44421  -0.42762  -0.42196  -0.41277
 Alpha  occ. eigenvalues --   -0.40258  -0.38086  -0.35399  -0.32010  -0.29848
 Alpha  occ. eigenvalues --   -0.28049  -0.27939
 Alpha virt. eigenvalues --   -0.02933  -0.02078  -0.01798   0.00918   0.04550
 Alpha virt. eigenvalues --    0.07119   0.08035   0.08620   0.10798   0.11603
 Alpha virt. eigenvalues --    0.12168   0.13495   0.13937   0.14656   0.15151

 Mulliken charges:
               1
     1  H    0.274880
     2  O   -0.385884
     3  C    0.287752
     4  N   -0.403335
     5  H    0.273047
     6  C   -0.299517
     7  H    0.154180
     8  H    0.150489
     9  H    0.159747
    10  C    0.425997
    11  O   -0.254705
    12  C    0.114982
    13  C    0.149626
    14  C    0.192175
    15  C    0.155417
    16  C    0.159038
    17  C    0.159404
    18  F   -0.177552
    19  F   -0.167775
    20  F   -0.167389
    21  F   -0.167950
    22  F   -0.164961
    23  F   -0.154476
    24  F   -0.155780
    25  F   -0.157410
 Sum of Mulliken charges =  -0.00000

 Dipole moment (field-independent basis, Debye):
    X=             -1.4281    Y=              5.7823    Z=             -0.8410  Tot=              6.0151
 Quadrupole moment (field-independent basis, Debye-Ang):
   XX=           -110.1701   YY=           -104.1162   ZZ=           -109.5301
   XY=            -13.1552   XZ=             -1.3878   YZ=              5.1727

  Exact polarizability: 184.832  -4.953 176.924   5.591  -7.926 116.019
 Approx polarizability: 201.057  -3.690 207.909  11.652 -17.198 137.081

 ******    1 imaginary frequencies (negative Signs) ******

                      1                      2                      3
                      A                      A                      A
 Frequencies --    -88.4039                22.3819                39.3284
 Red. masses --      6.1499                 7.4314                 8.7383
 Frc consts  --      0.0283                 0.0022                 0.0080
 IR Inten    --    165.2017                 2.4460                 2.5999

                      4                      5                      6
                      A                      A                      A
 Frequencies --     54.1230                72.3174                77.5876
 Red. masses --     10.7427                 4.4260                 3.2189
 Frc consts  --      0.0185                 0.0136                 0.0114
 IR Inten    --      1.5607                 1.4747                 5.0304

                      7                      8                      9
                      A                      A                      A
 Frequencies --    121.7428               134.4124               142.3505
 Red. masses --      1.5761                 5.2356                15.6329
 Frc consts  --      0.0138                 0.0557                 0.1866
 IR Inten    --      6.0257                 1.1619                 0.0424

                     10                     11                     12
                      A                      A                      A
 Frequencies --    149.2570               179.0959               190.1971
 Red. masses --      7.1234                 4.8523                12.4669
 Frc consts  --      0.0935                 0.0917                 0.2657
 IR Inten    --      2.0516                10.3189                 2.2505

                     13                     14                     15
                      A                      A                      A
 Frequencies --    205.6192               235.0734               245.4891
 Red. masses --      4.3968                 7.7472                 4.6534
 Frc consts  --      0.1095                 0.2522                 0.1652
 IR Inten    --      6.4281                 5.1173                26.5283

                     16                     17                     18
                      A                      A                      A
 Frequencies --    276.3337               276.7720               298.9209
 Red. masses --     17.7673                18.1781                13.2494
 Frc consts  --      0.7994                 0.8204                 0.6975
 IR Inten    --      0.1345                 1.3478                16.3010

                     19                     20                     21
                      A                      A                      A
 Frequencies --    307.6984               324.1466               346.4670
 Red. masses --     14.3774                 9.3786                12.9826
 Frc consts  --      0.8020                 0.5806                 0.9182
 IR Inten    --      0.5305                 4.2302                 0.6097

                     22                     23                     24
                      A                      A                      A
 Frequencies --    352.3478               384.5357               400.3031
 Red. masses --     12.7132                12.6724                13.5277
 Frc consts  --      0.9299                 1.1040                 1.2772
 IR Inten    --      2.0128                 0.2423                 1.2103

                     25                     26                     27
                      A                      A                      A
 Frequencies --    435.5440               451.1759               475.1740
 Red. masses --     11.7582                14.9296                13.7344
 Frc consts  --      1.3142                 1.7906                 1.8271
 IR Inten    --     15.8699                 0.0653                 5.3015

                     28                     29                     30
                      A                      A                      A
 Frequencies --    537.4752               564.7019               589.9434
 Red. masses --     16.4752                15.1905                10.6098
 Frc consts  --      2.8041                 2.8540                 2.1756
 IR Inten    --     34.3828                10.8850                 1.6194

                     31                     32                     33
                      A                      A                      A
 Frequencies --    604.5937               655.9141               660.5365
 Red. masses --      1.7684                10.3696                 5.7360
 Frc consts  --      0.3808                 2.6285                 1.4745
 IR Inten    --      6.5546                 4.1749                61.7205

                     34                     35                     36
                      A                      A                      A
 Frequencies --    674.7856               702.7945               727.3844
 Red. masses --     12.1457                 8.7803                12.6693
 Frc consts  --      3.2584                 2.5552                 3.9494
 IR Inten    --      3.2583               204.4547                 6.8875

                     37                     38                     39
                      A                      A                      A
 Frequencies --    768.4426               798.4906               850.2353
 Red. masses --     14.5754                12.6450                12.7507
 Frc consts  --      5.0710                 4.7502                 5.4308
 IR Inten    --     34.0832                 9.2720                40.3150

                     40                     41                     42
                      A                      A                      A
 Frequencies --    983.8711              1006.7786              1019.5856
 Red. masses --      1.2995                 1.3437                 3.5346
 Frc consts  --      0.7411                 0.8024                 2.1649
 IR Inten    --     52.5832               190.7046               310.4854

                     43                     44                     45
                      A                      A                      A
 Frequencies --   1023.3634              1050.9479              1083.0742
 Red. masses --      7.5994                 8.8442                 4.8543
 Frc consts  --      4.6891                 5.7553                 3.3550
 IR Inten    --    227.6634              1060.1047                54.4202

                     46                     47                     48
                      A                      A                      A
 Frequencies --   1173.6014              1179.8094              1184.5706
 Red. masses --      9.0501                13.3835                12.5079
 Frc consts  --      7.3442                10.9760                10.3409
 IR Inten    --    277.1998                48.2870                69.3333

                     49                     50                     51
                      A                      A                      A
 Frequencies --   1205.3843              1209.6380              1320.5826
 Red. masses --     11.8071                 1.4890                10.6066
 Frc consts  --     10.1075                 1.2837                10.8983
 IR Inten    --    391.9322                 5.3568               129.1031

                     52                     53                     54
                      A                      A                      A
 Frequencies --   1336.3797              1340.9323              1347.6599
 Red. masses --     11.2220                 1.6709                 4.5842
 Frc consts  --     11.8081                 1.7702                 4.9053
 IR Inten    --      4.4234                 3.4514                 4.1524

                     55                     56                     57
                      A                      A                      A
 Frequencies --   1448.2863              1476.3579              1490.7999
 Red. masses --      1.1747                 1.0401                 1.0325
 Frc consts  --      1.4517                 1.3357                 1.3520
 IR Inten    --      5.8051                11.6558                14.2649

                     58                     59                     60
                      A                      A                      A
 Frequencies --   1521.9008              1561.9067              1564.3675
 Red. masses --     12.5185                12.0684                12.2784
 Frc consts  --     17.0834                17.3465                17.7040
 IR Inten    --     32.6598               600.1758               521.3251

                     61                     62                     63
                      A                      A                      A
 Frequencies --   1636.8154              1693.7953              1703.0513
 Red. masses --      1.0899                11.9396                12.0391
 Frc consts  --      1.7205                20.1819                20.5731
 IR Inten    --     55.0423                 1.2849                21.2880

                     64                     65                     66
                      A                      A                      A
 Frequencies --   1749.3366              3067.8646              3146.5559
 Red. masses --     12.6427                 1.0356                 1.1021
 Frc consts  --     22.7948                 5.7429                 6.4290
 IR Inten    --    380.9889                30.6881                12.5138

                     67                     68                     69
                      A                      A                      A
 Frequencies --   3168.0485              3519.8369              3600.8194
 Red. masses --      1.1044                 1.0506                 1.0955
 Frc consts  --      6.5310                 7.6686                 8.3688
 IR Inten    --     13.1523                34.9004                50.2418

 - Thermochemistry -
 -------------------
 Temperature   298.150 Kelvin.  Pressure   1.00000 Atm.
 Atom     1 has atomic number  1 and mass   1.00783

 Molecular mass:   311.01925 amu.
 Principal axes and moments of inertia in atomic units:
                           1         2         3
     Eigenvalues --  3082.348558202.98532**********
           X            0.99977  -0.02007  -0.00779
           Y            0.02031   0.99927   0.03235
           Z            0.00713  -0.03250   0.99945
 This molecule is an asymmetric top.
 Rotational symmetry number  1.
 Warning -- assumption of classical behavior for rotation
           may cause significant error
 Rotational temperatures (Kelvin)      0.02810     0.01056     0.00859
 Rotational constants (GHZ):           0.58551     0.22001     0.17892
    1 imaginary frequencies ignored.
 Zero-point vibrational energy     383699.9 (Joules/Mol)
                                   91.70648 (Kcal/Mol)
 Warning -- explicit consideration of  30 degrees of freedom as
           vibrations may cause significant error
 Vibrational temperatures:     32.20    56.58    77.87   104.05   111.63
          (Kelvin)            175.16   193.39   204.81   214.75   257.68
                              273.65   295.84   338.22   353.20   397.58
                              398.21   430.08   442.71   466.37   498.49
                              506.95   553.26   575.95   626.65   649.14
                              683.67   773.31   812.48   848.80   869.88
                              943.71   950.36   970.87  1011.16  1046.54
                             1105.62  1148.85  1223.30  1415.57  1448.53
                             1466.96  1472.39  1512.08  1558.30  1688.55
                             1697.48  1704.33  1734.28  1740.40  1900.02
                             1922.75  1929.30  1938.98  2083.76  2124.15
                             2144.93  2189.68  2247.24  2250.78  2355.01
                             2436.99  2450.31  2516.91  4413.97  4527.19
                             4558.12  5064.26  5180.78

 Zero-point correction=                           0.146144 (Hartree/Particle)
 Thermal correction to Energy=                    0.164668
 Thermal correction to Enthalpy=                  0.165613
 Thermal correction to Gibbs Free Energy=         0.098105
 Sum of electronic and zero-point Energies=          -1348.929745
 Sum of electronic and thermal Energies=             -1348.911221
 Sum of electronic and thermal Enthalpies=           -1348.910277
 Sum of electronic and thermal Free Energies=        -1348.977784

                     E (Thermal)             CV                S
                      KCal/Mol        Cal/Mol-Kelvin    Cal/Mol-Kelvin
 Total                  103.331             66.032            142.080
 Electronic               0.000              0.000              0.000
 Translational            0.889              2.981             43.100
 Rotational               0.889              2.981             33.900
 Vibrational            101.553             60.070             65.081
 Vibration     1          0.593              1.985              6.411
 Vibration     2          0.594              1.981              5.293
 Vibration     3          0.596              1.976              4.661
 Vibration     4          0.598              1.967              4.089
 Vibration     5          0.599              1.964              3.951
 Vibration     6          0.609              1.931              3.073
 Vibration     7          0.613              1.919              2.882
 Vibration     8          0.616              1.911              2.772
 Vibration     9          0.618              1.903              2.682
 Vibration    10          0.629              1.868              2.338
 Vibration    11          0.634              1.853              2.226
 Vibration    12          0.640              1.832              2.082
 Vibration    13          0.655              1.787              1.840
 Vibration    14          0.660              1.770              1.763
 Vibration    15          0.678              1.717              1.556
 Vibration    16          0.678              1.716              1.554
 Vibration    17          0.692              1.676              1.423
 Vibration    18          0.698              1.659              1.375
 Vibration    19          0.709              1.627              1.289
 Vibration    20          0.724              1.582              1.182
 Vibration    21          0.729              1.570              1.156
 Vibration    22          0.753              1.503              1.021
 Vibration    23          0.766              1.469              0.962
 Vibration    24          0.796              1.393              0.841
 Vibration    25          0.810              1.358              0.792
 Vibration    26          0.832              1.305              0.723
 Vibration    27          0.892              1.167              0.571
 Vibration    28          0.921              1.108              0.515
 Vibration    29          0.947              1.053              0.467
 Vibration    30          0.963              1.022              0.442

 Optimization completed.
    -- Stationary point found.
 Normal termination of Gaussian 16 at Wed Aug 28 20:53:23 2024.
