 Gaussian 16, Revision B.01,
 Gaussian 16:  ES64L-G16RevB.01 20-Dec-2017

 ----------------------------------------------------------------------
 #P PBE1PBE/def2TZVP opt freq EmpiricalDispersion=GD3 Int=(grid=99590)
 scrf=(iefpcm, solvent=water)
 ----------------------------------------------------------------------

 ------------------
 pfp-oh_ester inter
 ------------------
 Symbolic Z-matrix:
 Charge =  0 Multiplicity = 1

 SCF Done:  E(RPBE1PBE) =  -1126.64968663     A.U. after   12 cycles
 SCF Done:  E(RPBE1PBE) =  -1126.64914877     A.U. after   13 cycles
 SCF Done:  E(RPBE1PBE) =  -1126.65142027     A.U. after   10 cycles
 SCF Done:  E(RPBE1PBE) =  -1126.65262099     A.U. after   10 cycles
 SCF Done:  E(RPBE1PBE) =  -1126.65297584     A.U. after    9 cycles
 SCF Done:  E(RPBE1PBE) =  -1126.65313961     A.U. after    9 cycles
 SCF Done:  E(RPBE1PBE) =  -1126.65320471     A.U. after    9 cycles
 SCF Done:  E(RPBE1PBE) =  -1126.65328102     A.U. after    9 cycles
 SCF Done:  E(RPBE1PBE) =  -1126.65312513     A.U. after   10 cycles
 SCF Done:  E(RPBE1PBE) =  -1126.65336390     A.U. after   10 cycles
 SCF Done:  E(RPBE1PBE) =  -1126.66322110     A.U. after    8 cycles
 SCF Done:  E(RPBE1PBE) =  -1126.66320876     A.U. after    8 cycles
 SCF Done:  E(RPBE1PBE) =  -1126.66323422     A.U. after    8 cycles
 SCF Done:  E(RPBE1PBE) =  -1126.66323401     A.U. after    7 cycles
 SCF Done:  E(RPBE1PBE) =  -1126.66323503     A.U. after    7 cycles
 SCF Done:  E(RPBE1PBE) =  -1126.66323577     A.U. after    6 cycles
 SCF Done:  E(RPBE1PBE) =  -1126.66323717     A.U. after    7 cycles
 SCF Done:  E(RPBE1PBE) =  -1126.66323739     A.U. after    6 cycles
 SCF Done:  E(RPBE1PBE) =  -1126.66323752     A.U. after    6 cycles
 Optimization completed.
    -- Stationary point found.
 Normal termination of Gaussian 16 at Wed Aug 28 22:58:36 2024.

 ----------------------------------------------------------------------
 #P Geom=AllCheck Guess=TCheck SCRF=Check GenChk RPBE1PBE/def2TZVP Freq
 ----------------------------------------------------------------------

 Structure from the checkpoint file:  "/scratch/Gau-1849222.chk"
 ------------------
 pfp-oh_ester inter
 ------------------
 Charge =  0 Multiplicity = 1

                         Standard orientation:
 ---------------------------------------------------------------------
 Center     Atomic      Atomic             Coordinates (Angstroms)
 Number     Number       Type             X           Y           Z
 ---------------------------------------------------------------------
      1          1           0        2.339682   -2.479048   -0.558868
      2          8           0        1.768964    0.685526    1.296654
      3          6           0        2.098265    0.541389    0.155805
      4          7           0        2.848868   -2.057407    0.207993
      5          1           0        3.810557   -2.362292    0.121133
      6          6           0        2.293543   -2.484211    1.483093
      7          1           0        2.866473   -2.034261    2.296327
      8          1           0        1.267725   -2.120440    1.574043
      9          1           0        2.283179   -3.571099    1.633495
     10          6           0        3.475026    0.790087   -0.410938
     11          1           0        4.205343    0.446734    0.324137
     12          1           0        3.603971    0.233348   -1.336438
     13          8           0        1.194173    0.302234   -0.850680
     14          6           0       -0.119208    0.202353   -0.496766
     15          6           0       -0.769112   -1.017039   -0.609380
     16          6           0       -0.845259    1.310035   -0.083161
     17          6           0       -2.116964   -1.133571   -0.314967
     18          6           0       -2.190938    1.202419    0.219736
     19          6           0       -2.827998   -0.021983    0.102980
     20          9           0       -0.100311   -2.091819   -1.005404
     21          9           0       -0.250146    2.489314    0.015529
     22          9           0       -2.725498   -2.305023   -0.429487
     23          9           0       -2.873159    2.267192    0.615708
     24          9           0       -4.116482   -0.127754    0.387324
     25          8           0        3.615134    2.163511   -0.715057
     26          1           0        3.661045    2.654671    0.111455
 ---------------------------------------------------------------------

 SCF Done:  E(RPBE1PBE) =  -1126.66323752     A.U. after    1 cycles

 The electronic state is 1-A.
 Alpha  occ. eigenvalues --  -24.82228 -24.82126 -24.82071 -24.82046 -24.81963
 Alpha  occ. eigenvalues --  -19.28609 -19.22527 -19.21394 -14.36744 -10.37056
 Alpha  occ. eigenvalues --  -10.35034 -10.34851 -10.34804 -10.34751 -10.34730
 Alpha  occ. eigenvalues --  -10.32657 -10.28448 -10.23347  -1.31553  -1.30949
 Alpha  occ. eigenvalues --   -1.30388  -1.29575  -1.29160  -1.17165  -1.08355
 Alpha  occ. eigenvalues --   -1.06929  -0.93914  -0.90790  -0.82839  -0.81786
 Alpha  occ. eigenvalues --   -0.76570  -0.70869  -0.70405  -0.68020  -0.65501
 Alpha  occ. eigenvalues --   -0.63559  -0.63003  -0.60096  -0.58296  -0.57472
 Alpha  occ. eigenvalues --   -0.57147  -0.56527  -0.55852  -0.53451  -0.53265
 Alpha  occ. eigenvalues --   -0.52107  -0.51691  -0.51055  -0.50358  -0.49927
 Alpha  occ. eigenvalues --   -0.48120  -0.47830  -0.47225  -0.45968  -0.45680
 Alpha  occ. eigenvalues --   -0.45414  -0.44038  -0.43115  -0.41959  -0.41304
 Alpha  occ. eigenvalues --   -0.38289  -0.38076  -0.37921  -0.35781  -0.33522
 Alpha  occ. eigenvalues --   -0.30105  -0.28135  -0.27943  -0.26195
 Alpha virt. eigenvalues --   -0.03071  -0.02078  -0.01797  -0.00624   0.04408
 Alpha virt. eigenvalues --    0.05661   0.07422   0.08317   0.09030   0.10336
 Alpha virt. eigenvalues --    0.11025   0.12337   0.13190   0.14589   0.15043

 Mulliken charges:
               1
     1  H    0.241264
     2  O   -0.346520
     3  C    0.350873
     4  N   -0.571910
     5  H    0.244716
     6  C   -0.266208
     7  H    0.129007
     8  H    0.127618
     9  H    0.127583
    10  C   -0.043697
    11  H    0.131476
    12  H    0.131088
    13  O   -0.226997
    14  C    0.120349
    15  C    0.139624
    16  C    0.200837
    17  C    0.162096
    18  C    0.161868
    19  C    0.158163
    20  F   -0.172606
    21  F   -0.168453
    22  F   -0.167428
    23  F   -0.167726
    24  F   -0.164869
    25  O   -0.474121
    26  H    0.343974
 Sum of Mulliken charges =  -0.00000

 Dipole moment (field-independent basis, Debye):
    X=              2.6963    Y=             -2.8106    Z=             -0.2633  Tot=              3.9037
 Quadrupole moment (field-independent basis, Debye-Ang):
   XX=            -92.5091   YY=            -98.9937   ZZ=           -102.2183
   XY=             -7.7303   XZ=              4.4869   YZ=              1.6286

  Exact polarizability: 189.495   4.612 174.966  -9.833   8.915 122.253
 Approx polarizability: 202.399   4.749 201.274 -15.463  15.935 143.624

                      1                      2                      3
                      A                      A                      A
 Frequencies --     21.2323                35.8477                48.4881
 Red. masses --      5.1168                 3.6249                 4.8601
 Frc consts  --      0.0014                 0.0027                 0.0067
 IR Inten    --      0.5337                 0.3596                 2.1809

                      4                      5                      6
                      A                      A                      A
 Frequencies --     59.7821                73.7693                82.9754
 Red. masses --      7.5902                 4.5896                 1.3012
 Frc consts  --      0.0160                 0.0147                 0.0053
 IR Inten    --      1.0915                 5.7238                 5.2217

                      7                      8                      9
                      A                      A                      A
 Frequencies --     91.6485               112.7451               126.6960
 Red. masses --      5.4944                 4.0974                 2.3603
 Frc consts  --      0.0272                 0.0307                 0.0223
 IR Inten    --      1.1382                 4.7415                 2.6204

                     10                     11                     12
                      A                      A                      A
 Frequencies --    140.5771               150.6134               152.3859
 Red. masses --     15.3626                 3.5797                10.1465
 Frc consts  --      0.1789                 0.0478                 0.1388
 IR Inten    --      0.2358                 8.1949                 0.3305

                     13                     14                     15
                      A                      A                      A
 Frequencies --    192.1057               225.5942               243.5837
 Red. masses --     16.7777                 7.1820                12.4541
 Frc consts  --      0.3648                 0.2154                 0.4354
 IR Inten    --      0.1795                11.2858                 5.9078

                     16                     17                     18
                      A                      A                      A
 Frequencies --    268.7835               276.5824               286.7154
 Red. masses --      4.9853                17.6373                 3.5615
 Frc consts  --      0.2122                 0.7949                 0.1725
 IR Inten    --      5.6842                 0.1083                19.5796

                     19                     20                     21
                      A                      A                      A
 Frequencies --    305.7433               330.5663               339.1206
 Red. masses --      8.3709                 2.5881                 3.4765
 Frc consts  --      0.4610                 0.1666                 0.2356
 IR Inten    --      4.9612               110.9807                16.9481

                     22                     23                     24
                      A                      A                      A
 Frequencies --    361.9834               377.6394               385.1420
 Red. masses --      1.4078                 2.9487                12.1360
 Frc consts  --      0.1087                 0.2478                 1.0606
 IR Inten    --     91.9090                70.1374                 0.0217

                     25                     26                     27
                      A                      A                      A
 Frequencies --    406.6625               450.3214               475.2644
 Red. masses --      9.6570                15.4330                 7.0927
 Frc consts  --      0.9409                 1.8439                 0.9439
 IR Inten    --      4.7345                 0.0331                 3.1394

                     28                     29                     30
                      A                      A                      A
 Frequencies --    562.3277               595.1457               644.5134
 Red. masses --      7.0533                13.6778                11.1603
 Frc consts  --      1.3141                 2.8544                 2.7314
 IR Inten    --     34.8188                 7.4835                 4.5732

                     31                     32                     33
                      A                      A                      A
 Frequencies --    673.6293               698.5234               733.3364
 Red. masses --     12.1851                 9.6350                11.4509
 Frc consts  --      3.2578                 2.7699                 3.6282
 IR Inten    --      0.4083                19.7380                14.9680

                     34                     35                     36
                      A                      A                      A
 Frequencies --    793.6398               806.8688               866.1475
 Red. masses --     10.9839                 9.2534                 1.2199
 Frc consts  --      4.0762                 3.5494                 0.5392
 IR Inten    --     14.5842                18.8742               213.1515

                     37                     38                     39
                      A                      A                      A
 Frequencies --    891.5862               976.8770               979.8103
 Red. masses --      5.6952                 1.9839                 1.0604
 Frc consts  --      2.6674                 1.1154                 0.5998
 IR Inten    --     53.4921                76.5468                 0.8847

                     40                     41                     42
                      A                      A                      A
 Frequencies --   1026.0548              1034.0876              1074.1142
 Red. masses --     13.6324                 9.3533                 5.8562
 Frc consts  --      8.4559                 5.8929                 3.9808
 IR Inten    --    396.3429               553.5049               132.4962

                     43                     44                     45
                      A                      A                      A
 Frequencies --   1085.6976              1150.2960              1174.1829
 Red. masses --      3.6930                 1.7257                 1.5298
 Frc consts  --      2.5647                 1.3454                 1.2427
 IR Inten    --     21.0336               291.9303                 9.9975

                     46                     47                     48
                      A                      A                      A
 Frequencies --   1180.5703              1183.1030              1246.0435
 Red. masses --      7.6996                13.5936                 1.7425
 Frc consts  --      6.3227                11.2106                 1.5940
 IR Inten    --     28.3516                10.8500               316.3226

                     49                     50                     51
                      A                      A                      A
 Frequencies --   1338.0730              1343.4651              1345.1557
 Red. masses --     11.7057                 3.6491                 1.7897
 Frc consts  --     12.3483                 3.8805                 1.9080
 IR Inten    --      1.5667                 2.9565                 2.8485

                     52                     53                     54
                      A                      A                      A
 Frequencies --   1366.8839              1402.4696              1448.7810
 Red. masses --      1.3148                 1.2765                 1.1715
 Frc consts  --      1.4473                 1.4793                 1.4488
 IR Inten    --     13.1469                55.9979                 2.9719

                     55                     56                     57
                      A                      A                      A
 Frequencies --   1474.3471              1475.0526              1497.3876
 Red. masses --      1.0938                 1.0494                 1.0310
 Frc consts  --      1.4008                 1.3453                 1.3620
 IR Inten    --      7.3944                 4.8525                 7.8201

                     58                     59                     60
                      A                      A                      A
 Frequencies --   1519.6473              1562.7492              1564.9856
 Red. masses --     12.5599                12.2428                12.1668
 Frc consts  --     17.0893                17.6161                17.5568
 IR Inten    --     24.7208               583.1521               492.7988

                     61                     62                     63
                      A                      A                      A
 Frequencies --   1646.5796              1696.1677              1704.4529
 Red. masses --      1.0880                11.8510                12.0204
 Frc consts  --      1.7380                20.0883                20.5750
 IR Inten    --     44.6961                 1.3248                 8.5744

                     64                     65                     66
                      A                      A                      A
 Frequencies --   1836.4506              3010.5743              3089.4674
 Red. masses --     12.3293                 1.0476                 1.0871
 Frc consts  --     24.4990                 5.5944                 6.1136
 IR Inten    --    334.2976               100.8089                35.9089

                     67                     68                     69
                      A                      A                      A
 Frequencies --   3091.3605              3124.1596              3170.1033
 Red. masses --      1.0627                 1.1030                 1.1057
 Frc consts  --      5.9836                 6.3430                 6.5469
 IR Inten    --     38.9160                38.4437                12.2209

                     70                     71                     72
                      A                      A                      A
 Frequencies --   3531.8916              3609.6968              3844.3243
 Red. masses --      1.0500                 1.0931                 1.0664
 Frc consts  --      7.7174                 8.3917                 9.2860
 IR Inten    --      1.9331                12.5678                83.1665

 - Thermochemistry -
 -------------------
 Temperature   298.150 Kelvin.  Pressure   1.00000 Atm.
 Atom     1 has atomic number  1 and mass   1.00783

 Molecular mass:   273.04243 amu.
 Principal axes and moments of inertia in atomic units:
                           1         2         3
     Eigenvalues --  3088.560516096.402788254.90781
           X            0.99970  -0.02321   0.00800
           Y            0.02343   0.99932  -0.02862
           Z           -0.00733   0.02880   0.99956
 This molecule is an asymmetric top.
 Rotational symmetry number  1.
 Warning -- assumption of classical behavior for rotation
           may cause significant error
 Rotational temperatures (Kelvin)      0.02804     0.01421     0.01049
 Rotational constants (GHZ):           0.58433     0.29603     0.21863
 Zero-point vibrational energy     455139.3 (Joules/Mol)
                                  108.78091 (Kcal/Mol)
 Warning -- explicit consideration of  29 degrees of freedom as
           vibrations may cause significant error
 Vibrational temperatures:     30.55    51.58    69.76    86.01   106.14
          (Kelvin)            119.38   131.86   162.22   182.29   202.26
                              216.70   219.25   276.40   324.58   350.46
                              386.72   397.94   412.52   439.90   475.61
                              487.92   520.81   543.34   554.13   585.10
                              647.91   683.80   809.06   856.28   927.31
                              969.20  1005.02  1055.11  1141.87  1160.90
                             1246.19  1282.79  1405.51  1409.73  1476.26
                             1487.82  1545.41  1562.08  1655.02  1689.39
                             1698.58  1702.22  1792.78  1925.19  1932.95
                             1935.38  1966.64  2017.84  2084.47  2121.26
                             2122.27  2154.41  2186.43  2248.45  2251.67
                             2369.06  2440.41  2452.33  2642.24  4331.54
                             4445.05  4447.78  4494.97  4561.07  5081.60
                             5193.55  5531.13

 Zero-point correction=                           0.173353 (Hartree/Particle)
 Thermal correction to Energy=                    0.192630
 Thermal correction to Enthalpy=                  0.193574
 Thermal correction to Gibbs Free Energy=         0.123618
 Sum of electronic and zero-point Energies=          -1126.489884
 Sum of electronic and thermal Energies=             -1126.470607
 Sum of electronic and thermal Enthalpies=           -1126.469663
 Sum of electronic and thermal Free Energies=        -1126.539620

                     E (Thermal)             CV                S
                      KCal/Mol        Cal/Mol-Kelvin    Cal/Mol-Kelvin
 Total                  120.877             65.845            147.237
 Electronic               0.000              0.000              0.000
 Translational            0.889              2.981             42.712
 Rotational               0.889              2.981             33.408
 Vibrational            119.100             59.883             71.117
 Vibration     1          0.593              1.985              6.515
 Vibration     2          0.594              1.982              5.476
 Vibration     3          0.595              1.978              4.878
 Vibration     4          0.597              1.973              4.464
 Vibration     5          0.599              1.966              4.050
 Vibration     6          0.600              1.961              3.819
 Vibration     7          0.602              1.955              3.625
 Vibration     8          0.607              1.939              3.221
 Vibration     9          0.611              1.926              2.996
 Vibration    10          0.615              1.913              2.796
 Vibration    11          0.618              1.902              2.664
 Vibration    12          0.619              1.900              2.642
 Vibration    13          0.634              1.851              2.207
 Vibration    14          0.650              1.802              1.914
 Vibration    15          0.659              1.773              1.777
 Vibration    16          0.673              1.731              1.604
 Vibration    17          0.678              1.717              1.555
 Vibration    18          0.684              1.698              1.493
 Vibration    19          0.696              1.663              1.385
 Vibration    20          0.713              1.614              1.257
 Vibration    21          0.719              1.597              1.216
 Vibration    22          0.736              1.551              1.114
 Vibration    23          0.748              1.518              1.049
 Vibration    24          0.754              1.502              1.019
 Vibration    25          0.771              1.456              0.938
 Vibration    26          0.809              1.360              0.795
 Vibration    27          0.832              1.305              0.723
 Vibration    28          0.918              1.113              0.519
 Vibration    29          0.953              1.042              0.458

                           ! Non-Optimized Parameters !
 Normal termination of Gaussian 16 at Wed Aug 28 23:18:02 2024.
