 Gaussian 16, Revision B.01,
 Gaussian 16:  ES64L-G16RevB.01 20-Dec-2017

 ----------------------------------------------------------------------
 #P PBE1PBE/def2TZVP opt freq EmpiricalDispersion=GD3 Int=(grid=99590)
 scrf=(iefpcm, solvent=water)
 ----------------------------------------------------------------------

 ----------------------------------
 pfp-ome_ester methylacetamide_prod
 ----------------------------------
 Symbolic Z-matrix:
 Charge =  0 Multiplicity = 1

 SCF Done:  E(RPBE1PBE) =  -362.755671804     A.U. after   12 cycles
 SCF Done:  E(RPBE1PBE) =  -362.774161924     A.U. after   11 cycles
 SCF Done:  E(RPBE1PBE) =  -362.777572312     A.U. after   11 cycles
 SCF Done:  E(RPBE1PBE) =  -362.777653728     A.U. after   11 cycles
 SCF Done:  E(RPBE1PBE) =  -362.780864337     A.U. after   10 cycles
 SCF Done:  E(RPBE1PBE) =  -362.781235919     A.U. after   10 cycles
 SCF Done:  E(RPBE1PBE) =  -362.781485823     A.U. after   10 cycles
 SCF Done:  E(RPBE1PBE) =  -362.782414608     A.U. after   11 cycles
 SCF Done:  E(RPBE1PBE) =  -362.780263617     A.U. after   12 cycles
 SCF Done:  E(RPBE1PBE) =  -362.785366639     A.U. after   11 cycles
 SCF Done:  E(RPBE1PBE) =  -362.787844036     A.U. after    7 cycles
 SCF Done:  E(RPBE1PBE) =  -362.787804767     A.U. after   12 cycles
 SCF Done:  E(RPBE1PBE) =  -362.787840216     A.U. after    9 cycles
 SCF Done:  E(RPBE1PBE) =  -362.787848220     A.U. after    9 cycles
 SCF Done:  E(RPBE1PBE) =  -362.787849561     A.U. after    7 cycles
 SCF Done:  E(RPBE1PBE) =  -362.787850256     A.U. after    7 cycles
 SCF Done:  E(RPBE1PBE) =  -362.787850125     A.U. after    8 cycles
 SCF Done:  E(RPBE1PBE) =  -362.787850527     A.U. after    7 cycles
 SCF Done:  E(RPBE1PBE) =  -362.787850562     A.U. after    6 cycles
 Optimization completed.
    -- Stationary point found.
 Normal termination of Gaussian 16 at Thu Aug 29 03:54:48 2024.

 ----------------------------------------------------------------------
 #P Geom=AllCheck Guess=TCheck SCRF=Check GenChk RPBE1PBE/def2TZVP Freq
 ----------------------------------------------------------------------

 Structure from the checkpoint file:  "/scratch/Gau-1904075.chk"
 ----------------------------------
 pfp-ome_ester methylacetamide_prod
 ----------------------------------
 Charge =  0 Multiplicity = 1

                         Standard orientation:
 ---------------------------------------------------------------------
 Center     Atomic      Atomic             Coordinates (Angstroms)
 Number     Number       Type             X           Y           Z
 ---------------------------------------------------------------------
      1          6           0       -0.646677    0.571336    0.000092
      2          8           0       -1.365346    1.565645    0.000265
      3          7           0       -1.106412   -0.680713    0.000136
      4          1           0       -0.426763   -1.423755   -0.001062
      5          6           0        0.858151    0.725797   -0.000460
      6          6           0       -2.516502   -0.982378   -0.000193
      7          1           0       -3.004101   -0.573821   -0.888300
      8          1           0       -2.645091   -2.062742    0.007338
      9          1           0       -3.006358   -0.561144    0.880596
     10          8           0        1.504148   -0.516592    0.000845
     11          1           0        1.127312    1.317524   -0.886803
     12          1           0        1.127900    1.319798    0.884091
     13          6           0        2.908235   -0.398830   -0.000163
     14          1           0        3.320058   -1.407460   -0.000402
     15          1           0        3.260479    0.134228   -0.891931
     16          1           0        3.261788    0.134382    0.890993
 ---------------------------------------------------------------------

 SCF Done:  E(RPBE1PBE) =  -362.787850562     A.U. after    1 cycles

 The electronic state is 1-A.
 Alpha  occ. eigenvalues --  -19.22776 -19.17345 -14.41190 -10.32254 -10.27870
 Alpha  occ. eigenvalues --  -10.26472 -10.25059  -1.09080  -1.06701  -0.95614
 Alpha  occ. eigenvalues --   -0.78427  -0.72212  -0.67887  -0.60412  -0.54869
 Alpha  occ. eigenvalues --   -0.51924  -0.51411  -0.47069  -0.46846  -0.45589
 Alpha  occ. eigenvalues --   -0.42909  -0.41058  -0.40798  -0.37760  -0.35568
 Alpha  occ. eigenvalues --   -0.29108  -0.28014  -0.27474
 Alpha virt. eigenvalues --    0.02500   0.04741   0.06402   0.07870   0.09213
 Alpha virt. eigenvalues --    0.11059   0.12348   0.12376   0.13413   0.14312
 Alpha virt. eigenvalues --    0.15936   0.16030   0.18713   0.18809   0.21463

 Mulliken charges:
               1
     1  C    0.274880
     2  O   -0.487965
     3  N   -0.241798
     4  H    0.262747
     5  C   -0.046157
     6  C   -0.295780
     7  H    0.142071
     8  H    0.154121
     9  H    0.142113
    10  O   -0.317015
    11  H    0.124747
    12  H    0.124750
    13  C   -0.238216
    14  H    0.146382
    15  H    0.127545
    16  H    0.127574
 Sum of Mulliken charges =  -0.00000

 Dipole moment (field-independent basis, Debye):
    X=              2.8801    Y=             -3.7824    Z=             -0.0049  Tot=              4.7541
 Quadrupole moment (field-independent basis, Debye-Ang):
   XX=            -36.5154   YY=            -45.7354   ZZ=            -42.5058
   XY=              8.5699   XZ=             -0.0047   YZ=              0.0024

  Exact polarizability:  89.594   1.475  86.006   0.015   0.012  63.965
 Approx polarizability:  84.787  -1.325  95.047   0.011   0.010  68.646

                      1                      2                      3
                      A                      A                      A
 Frequencies --     29.9853                50.1843                95.6364
 Red. masses --      1.0335                 2.4325                 2.8153
 Frc consts  --      0.0005                 0.0036                 0.0152
 IR Inten    --      0.5737                16.0760                 7.6359

                      4                      5                      6
                      A                      A                      A
 Frequencies --    155.2118               169.6770               226.4839
 Red. masses --      3.3210                 2.9000                 1.1784
 Frc consts  --      0.0471                 0.0492                 0.0356
 IR Inten    --      9.1125                 8.0730                 7.7963

                      7                      8                      9
                      A                      A                      A
 Frequencies --    280.5423               367.4010               472.7480
 Red. masses --      3.8837                 3.6013                 7.3503
 Frc consts  --      0.1801                 0.2864                 0.9679
 IR Inten    --     12.6554                 6.5838                15.2294

                     10                     11                     12
                      A                      A                      A
 Frequencies --    505.6024               635.5587               685.3306
 Red. masses --      1.2414                 2.2373                 3.5258
 Frc consts  --      0.1870                 0.5324                 0.9757
 IR Inten    --    120.3354                 0.1143                11.5887

                     13                     14                     15
                      A                      A                      A
 Frequencies --    896.7931              1025.9296              1029.3183
 Red. masses --      2.7609                 3.8716                 2.0541
 Frc consts  --      1.3082                 2.4009                 1.2823
 IR Inten    --     10.6043                61.1041                 0.3980

                     16                     17                     18
                      A                      A                      A
 Frequencies --   1121.3872              1148.3005              1169.7617
 Red. masses --      3.5667                 1.3003                 3.4218
 Frc consts  --      2.6426                 1.0102                 2.7587
 IR Inten    --     10.5126                 0.1645               192.3606

                     19                     20                     21
                      A                      A                      A
 Frequencies --   1179.3264              1187.1898              1233.8805
 Red. masses --      1.2766                 1.7950                 2.1172
 Frc consts  --      1.0461                 1.4906                 1.8991
 IR Inten    --      2.4444                 3.7842               100.7361

                     22                     23                     24
                      A                      A                      A
 Frequencies --   1259.2214              1300.5795              1390.3124
 Red. masses --      1.0938                 1.6093                 1.4738
 Frc consts  --      1.0218                 1.6038                 1.6784
 IR Inten    --      7.9984                17.8242                27.2578

                     25                     26                     27
                      A                      A                      A
 Frequencies --   1443.5719              1459.2025              1464.4025
 Red. masses --      1.2079                 1.0970                 1.0368
 Frc consts  --      1.4831                 1.3762                 1.3099
 IR Inten    --     27.2955                20.7339                15.6445

                     28                     29                     30
                      A                      A                      A
 Frequencies --   1473.5772              1479.8004              1491.7063
 Red. masses --      1.0410                 1.0976                 1.0539
 Frc consts  --      1.3318                 1.4161                 1.3817
 IR Inten    --     13.8934                14.8069                 1.2441

                     31                     32                     33
                      A                      A                      A
 Frequencies --   1497.2213              1583.8400              1728.9567
 Red. masses --      1.0928                 2.6641                 9.5151
 Frc consts  --      1.4434                 3.9375                16.7584
 IR Inten    --     12.0253               379.2270               558.9173

                     34                     35                     36
                      A                      A                      A
 Frequencies --   3002.3598              3008.3155              3040.0162
 Red. masses --      1.0484                 1.0422                 1.1040
 Frc consts  --      5.5679                 5.5573                 6.0114
 IR Inten    --     50.0215                71.4989                54.0375

                     37                     38                     39
                      A                      A                      A
 Frequencies --   3054.6241              3065.4516              3114.2425
 Red. masses --      1.0356                 1.1055                 1.1042
 Frc consts  --      5.6935                 6.1205                 6.3098
 IR Inten    --     47.3375                50.5679                31.3007

                     40                     41                     42
                      A                      A                      A
 Frequencies --   3146.2478              3168.8145              3645.2004
 Red. masses --      1.0996                 1.1018                 1.0780
 Frc consts  --      6.4133                 6.5187                 8.4395
 IR Inten    --     29.3105                15.1602               127.6272

 - Thermochemistry -
 -------------------
 Temperature   298.150 Kelvin.  Pressure   1.00000 Atm.
 Atom     1 has atomic number  6 and mass  12.00000

 Molecular mass:   103.06333 amu.
 Principal axes and moments of inertia in atomic units:
                           1         2         3
     Eigenvalues --   323.497571214.152681503.66089
           X            0.99942   0.03401  -0.00001
           Y           -0.03401   0.99942   0.00001
           Z            0.00001  -0.00001   1.00000
 This molecule is an asymmetric top.
 Rotational symmetry number  1.
 Rotational temperatures (Kelvin)      0.26774     0.07134     0.05760
 Rotational constants (GHZ):           5.57884     1.48642     1.20023
 Zero-point vibrational energy     355792.8 (Joules/Mol)
                                   85.03652 (Kcal/Mol)
 Warning -- explicit consideration of  10 degrees of freedom as
           vibrations may cause significant error
 Vibrational temperatures:     43.14    72.20   137.60   223.32   244.13
          (Kelvin)            325.86   403.64   528.61   680.18   727.45
                              914.43   986.04  1290.29  1476.08  1480.96
                             1613.43  1652.15  1683.03  1696.79  1708.10
                             1775.28  1811.74  1871.24  2000.35  2076.98
                             2099.47  2106.95  2120.15  2129.10  2146.23
                             2154.17  2278.79  2487.58  4319.73  4328.29
                             4373.91  4394.92  4410.50  4480.70  4526.75
                             4559.22  5244.63

 Zero-point correction=                           0.135514 (Hartree/Particle)
 Thermal correction to Energy=                    0.144389
 Thermal correction to Enthalpy=                  0.145333
 Thermal correction to Gibbs Free Energy=         0.100530
 Sum of electronic and zero-point Energies=           -362.652336
 Sum of electronic and thermal Energies=              -362.643462
 Sum of electronic and thermal Enthalpies=            -362.642517
 Sum of electronic and thermal Free Energies=         -362.687321

                     E (Thermal)             CV                S
                      KCal/Mol        Cal/Mol-Kelvin    Cal/Mol-Kelvin
 Total                   90.605             28.703             94.297
 Electronic               0.000              0.000              0.000
 Translational            0.889              2.981             39.808
 Rotational               0.889              2.981             27.870
 Vibrational             88.828             22.742             26.619
 Vibration     1          0.594              1.984              5.830
 Vibration     2          0.595              1.978              4.810
 Vibration     3          0.603              1.952              3.541
 Vibration     4          0.620              1.897              2.607
 Vibration     5          0.625              1.880              2.439
 Vibration     6          0.650              1.801              1.907
 Vibration     7          0.680              1.710              1.530
 Vibration     8          0.740              1.539              1.091
 Vibration     9          0.830              1.311              0.730
 Vibration    10          0.861              1.238              0.644

                           ! Non-Optimized Parameters !
 Normal termination of Gaussian 16 at Thu Aug 29 03:56:53 2024.
