 Gaussian 16, Revision B.01,
 Gaussian 16:  ES64L-G16RevB.01 20-Dec-2017

 ----------------------------------------------------------------------
 #P PBE1PBE/def2TZVP opt=(calcfc, ts, noeigentest) freq EmpiricalDisper
 sion=GD3 Int=(grid=99590) scrf=(iefpcm, solvent=water)
 ----------------------------------------------------------------------

 ----------------
 tfp-pyridine_ts1
 ----------------
 Symbolic Z-matrix:
 Charge =  0 Multiplicity = 1

 SCF Done:  E(RPBE1PBE) =  -968.295545105     A.U. after   12 cycles
 SCF Done:  E(RPBE1PBE) =  -968.329339046     A.U. after   11 cycles
 SCF Done:  E(RPBE1PBE) =  -968.342734684     A.U. after   11 cycles
 SCF Done:  E(RPBE1PBE) =  -968.348812378     A.U. after   10 cycles
 SCF Done:  E(RPBE1PBE) =  -968.352012366     A.U. after   10 cycles
 SCF Done:  E(RPBE1PBE) =  -968.354634852     A.U. after   10 cycles
 SCF Done:  E(RPBE1PBE) =  -968.355227241     A.U. after   10 cycles
 SCF Done:  E(RPBE1PBE) =  -968.355974015     A.U. after   10 cycles
 SCF Done:  E(RPBE1PBE) =  -968.355442402     A.U. after   10 cycles
 SCF Done:  E(RPBE1PBE) =  -968.356556576     A.U. after   11 cycles
 SCF Done:  E(RPBE1PBE) =  -968.356483796     A.U. after   10 cycles
 SCF Done:  E(RPBE1PBE) =  -968.356778663     A.U. after   10 cycles
 SCF Done:  E(RPBE1PBE) =  -968.356785484     A.U. after    8 cycles
 SCF Done:  E(RPBE1PBE) =  -968.356733103     A.U. after    9 cycles
 SCF Done:  E(RPBE1PBE) =  -968.356779149     A.U. after    9 cycles
 SCF Done:  E(RPBE1PBE) =  -968.356779328     A.U. after    9 cycles
 SCF Done:  E(RPBE1PBE) =  -968.356787110     A.U. after    8 cycles
 SCF Done:  E(RPBE1PBE) =  -968.356788008     A.U. after    7 cycles
 SCF Done:  E(RPBE1PBE) =  -968.356788059     A.U. after    6 cycles
 Optimization completed.
    -- Stationary point found.
 Normal termination of Gaussian 16 at Tue Jul 16 01:30:27 2024.

 ----------------------------------------------------------------------
 #P Geom=AllCheck Guess=TCheck SCRF=Check GenChk RPBE1PBE/def2TZVP Freq
 ----------------------------------------------------------------------

 Structure from the checkpoint file:  "/scratch/Gau-1633340.chk"
 ----------------
 tfp-pyridine_ts1
 ----------------
 Charge =  0 Multiplicity = 1

                         Standard orientation:
 ---------------------------------------------------------------------
 Center     Atomic      Atomic             Coordinates (Angstroms)
 Number     Number       Type             X           Y           Z
 ---------------------------------------------------------------------
      1          1           0       -2.034203    1.646775    0.242373
      2          8           0       -1.613127   -0.939264    1.118386
      3          6           0       -1.988542   -0.663111   -0.007977
      4          7           0       -2.810277    1.016413    0.067776
      5          1           0       -3.205333    1.270468   -0.831900
      6          6           0       -3.793804    1.086794    1.141728
      7          1           0       -4.672658    0.504880    0.867737
      8          1           0       -3.347037    0.656967    2.038354
      9          1           0       -4.097860    2.114805    1.344286
     10          6           0       -3.005515   -1.461157   -0.775787
     11          1           0       -2.586821   -2.456268   -0.937784
     12          1           0       -3.913656   -1.560105   -0.182286
     13          1           0       -3.237263   -1.015280   -1.741899
     14          8           0       -0.955532   -0.245527   -0.997263
     15          6           0        0.280204   -0.087766   -0.520896
     16          6           0        0.842669    1.180034   -0.398540
     17          6           0        1.089215   -1.167636   -0.173473
     18          6           0        2.146807    1.297412    0.039527
     19          6           0        2.377613   -0.920080    0.258156
     20          7           0        2.893756    0.276006    0.361590
     21          9           0        3.154215   -1.944249    0.588112
     22          9           0        0.635931   -2.408222   -0.282694
     23          9           0        0.120546    2.257145   -0.695980
     24          9           0        2.685738    2.504460    0.151689
 ---------------------------------------------------------------------

 SCF Done:  E(RPBE1PBE) =  -968.356788059     A.U. after    1 cycles

 The electronic state is 1-A.
 Alpha  occ. eigenvalues --  -24.81793 -24.81273 -24.81254 -24.81188 -19.25033
 Alpha  occ. eigenvalues --  -19.16835 -14.43510 -14.42184 -10.36866 -10.36841
 Alpha  occ. eigenvalues --  -10.36780 -10.33947 -10.33837 -10.32929 -10.25404
 Alpha  occ. eigenvalues --  -10.22125  -1.30582  -1.30322  -1.29192  -1.28909
 Alpha  occ. eigenvalues --   -1.13078  -1.04791  -1.02731  -0.96232  -0.86367
 Alpha  occ. eigenvalues --   -0.81717  -0.77826  -0.71627  -0.70951  -0.70474
 Alpha  occ. eigenvalues --   -0.63991  -0.63213  -0.61415  -0.59316  -0.57659
 Alpha  occ. eigenvalues --   -0.56220  -0.55705  -0.55263  -0.53243  -0.52854
 Alpha  occ. eigenvalues --   -0.51164  -0.50022  -0.49828  -0.48854  -0.48113
 Alpha  occ. eigenvalues --   -0.47636  -0.45832  -0.45357  -0.43569  -0.42822
 Alpha  occ. eigenvalues --   -0.42324  -0.41922  -0.40653  -0.40295  -0.38679
 Alpha  occ. eigenvalues --   -0.34774  -0.34098  -0.31209  -0.29146  -0.27689
 Alpha  occ. eigenvalues --   -0.27395
 Alpha virt. eigenvalues --   -0.04324  -0.01350   0.02048   0.04740   0.05387
 Alpha virt. eigenvalues --    0.06852   0.08148   0.08830   0.10032   0.10969
 Alpha virt. eigenvalues --    0.12131   0.12289   0.13448   0.14270   0.14681

 Mulliken charges:
               1
     1  H    0.262202
     2  O   -0.451676
     3  C    0.290039
     4  N   -0.281824
     5  H    0.275914
     6  C   -0.317897
     7  H    0.157520
     8  H    0.155052
     9  H    0.161349
    10  C   -0.390174
    11  H    0.145256
    12  H    0.143801
    13  H    0.141274
    14  O   -0.295895
    15  C    0.151450
    16  C    0.123507
    17  C    0.148631
    18  C    0.232478
    19  C    0.232293
    20  N   -0.197462
    21  F   -0.163298
    22  F   -0.175390
    23  F   -0.184237
    24  F   -0.162916
 Sum of Mulliken charges =  -0.00000

 Dipole moment (field-independent basis, Debye):
    X=             -8.0395    Y=              3.6993    Z=             -2.4416  Tot=              9.1804
 Quadrupole moment (field-independent basis, Debye-Ang):
   XX=            -76.7829   YY=            -92.0859   ZZ=            -90.5674
   XY=             -9.4192   XZ=              0.2259   YZ=              4.3274

  Exact polarizability: 180.654  -2.768 169.196  12.831  -1.942 111.875
 Approx polarizability: 189.818  -4.025 199.216  20.932  -7.509 130.578

 ******    1 imaginary frequencies (negative Signs) ******

                      1                      2                      3
                      A                      A                      A
 Frequencies --   -205.2550                28.9225                43.9801
 Red. masses --      5.2102                 4.5059                 6.0364
 Frc consts  --      0.1293                 0.0022                 0.0069
 IR Inten    --    307.4621                 4.5157                 2.7960

                      4                      5                      6
                      A                      A                      A
 Frequencies --     62.8268                84.1865               125.9077
 Red. masses --      2.4024                 5.1990                17.6862
 Frc consts  --      0.0056                 0.0217                 0.1652
 IR Inten    --      8.0292                 1.9833                 0.2677

                      7                      8                      9
                      A                      A                      A
 Frequencies --    159.7921               174.3065               189.0026
 Red. masses --      7.2777                 4.7022                 1.1693
 Frc consts  --      0.1095                 0.0842                 0.0246
 IR Inten    --      3.6552                 0.9689                 1.2611

                     10                     11                     12
                      A                      A                      A
 Frequencies --    227.7662               236.7307               255.4552
 Red. masses --      8.6797                 1.5447                 1.9765
 Frc consts  --      0.2653                 0.0510                 0.0760
 IR Inten    --      4.4915                 0.4426                 2.8309

                     13                     14                     15
                      A                      A                      A
 Frequencies --    271.4405               296.4324               312.9358
 Red. masses --      6.7413                 6.5594                13.0281
 Frc consts  --      0.2926                 0.3396                 0.7517
 IR Inten    --     48.4141                10.6798                11.8449

                     16                     17                     18
                      A                      A                      A
 Frequencies --    334.2205               360.5503               381.1036
 Red. masses --      5.1615                 4.6498                 8.9665
 Frc consts  --      0.3397                 0.3561                 0.7673
 IR Inten    --      5.5106                 5.2784                18.9990

                     19                     20                     21
                      A                      A                      A
 Frequencies --    386.8415               448.0643               464.3680
 Red. masses --      6.3854                12.6540                14.6137
 Frc consts  --      0.5630                 1.4968                 1.8567
 IR Inten    --      9.1018                 0.8139                 2.1749

                     22                     23                     24
                      A                      A                      A
 Frequencies --    503.7338               514.5995               567.4738
 Red. masses --      6.6197                 3.5436                 7.0469
 Frc consts  --      0.9897                 0.5529                 1.3370
 IR Inten    --     27.5867                73.5006               119.7089

                     25                     26                     27
                      A                      A                      A
 Frequencies --    596.1310               693.2425               707.8030
 Red. masses --      5.0376                 8.2608                 8.5516
 Frc consts  --      1.0548                 2.3391                 2.5242
 IR Inten    --     81.4181                97.4406                14.6647

                     28                     29                     30
                      A                      A                      A
 Frequencies --    711.5376               719.4762               726.7471
 Red. masses --     11.7573                 2.0342                 5.3656
 Frc consts  --      3.5072                 0.6204                 1.6697
 IR Inten    --      7.8306                19.6844               129.8181

                     31                     32                     33
                      A                      A                      A
 Frequencies --    753.9456               810.4667               974.5636
 Red. masses --     12.2541                11.0464                 1.6543
 Frc consts  --      4.1040                 4.2751                 0.9258
 IR Inten    --      3.5963                23.6181               146.4248

                     34                     35                     36
                      A                      A                      A
 Frequencies --    993.8700              1025.9727              1035.3579
 Red. masses --      7.5187                 1.5310                 1.2828
 Frc consts  --      4.3757                 0.9495                 0.8102
 IR Inten    --    322.5997               141.2790                47.5868

                     37                     38                     39
                      A                      A                      A
 Frequencies --   1048.1240              1083.7268              1090.4388
 Red. masses --      1.4723                 3.5049                 3.7709
 Frc consts  --      0.9529                 2.4253                 2.6418
 IR Inten    --    202.1012               117.0357               658.6778

                     40                     41                     42
                      A                      A                      A
 Frequencies --   1141.2488              1174.3283              1234.0382
 Red. masses --      3.7891                13.1401                 1.3896
 Frc consts  --      2.9077                10.6765                 1.2468
 IR Inten    --     67.4337                 1.8290                50.1487

                     43                     44                     45
                      A                      A                      A
 Frequencies --   1316.3377              1338.9635              1361.4458
 Red. masses --     11.5847                 1.3171                12.2582
 Frc consts  --     11.8268                 1.3913                13.3868
 IR Inten    --     49.4563                 5.2928                 7.1833

                     46                     47                     48
                      A                      A                      A
 Frequencies --   1390.1667              1441.0813              1456.2683
 Red. masses --      1.2865                 1.1729                11.8994
 Frc consts  --      1.4649                 1.4351                14.8682
 IR Inten    --     43.6010                 7.0826                17.7869

                     49                     50                     51
                      A                      A                      A
 Frequencies --   1461.5714              1468.8321              1484.0676
 Red. masses --      1.0592                 1.0500                 1.0385
 Frc consts  --      1.3331                 1.3347                 1.3476
 IR Inten    --     16.5521                21.6154                18.5374

                     52                     53                     54
                      A                      A                      A
 Frequencies --   1493.7399              1515.3068              1545.6469
 Red. masses --      1.0367                12.3272                11.8788
 Frc consts  --      1.3629                16.6770                16.7203
 IR Inten    --     13.8665              1063.1971               256.1759

                     55                     56                     57
                      A                      A                      A
 Frequencies --   1634.1345              1669.2502              1681.0699
 Red. masses --      1.0975                11.4976                11.0126
 Frc consts  --      1.7267                18.8755                18.3362
 IR Inten    --     44.2127                27.7263               182.0963

                     58                     59                     60
                      A                      A                      A
 Frequencies --   1698.9307              3068.9169              3072.5616
 Red. masses --     11.2029                 1.0334                 1.0357
 Frc consts  --     19.0517                 5.7345                 5.7607
 IR Inten    --    515.2224                33.5998                 6.4540

                     61                     62                     63
                      A                      A                      A
 Frequencies --   3147.9145              3154.0731              3166.3589
 Red. masses --      1.1045                 1.1012                 1.1053
 Frc consts  --      6.4486                 6.4544                 6.5291
 IR Inten    --     11.3419                12.2973                13.4484

                     64                     65                     66
                      A                      A                      A
 Frequencies --   3173.2467              3513.1193              3591.6634
 Red. masses --      1.1047                 1.0509                 1.0957
 Frc consts  --      6.5542                 7.6415                 8.3276
 IR Inten    --     13.1559                31.9139                57.0851

 - Thermochemistry -
 -------------------
 Temperature   298.150 Kelvin.  Pressure   1.00000 Atm.
 Atom     1 has atomic number  1 and mass   1.00783

 Molecular mass:   240.05219 amu.
 Principal axes and moments of inertia in atomic units:
                           1         2         3
     Eigenvalues --  2329.917414579.426066223.86966
           X            0.99995  -0.00654  -0.00700
           Y            0.00669   0.99974   0.02157
           Z            0.00685  -0.02162   0.99974
 This molecule is an asymmetric top.
 Rotational symmetry number  1.
 Warning -- assumption of classical behavior for rotation
           may cause significant error
 Rotational temperatures (Kelvin)      0.03717     0.01891     0.01392
 Rotational constants (GHZ):           0.77459     0.39410     0.28997
    1 imaginary frequencies ignored.
 Zero-point vibrational energy     435418.7 (Joules/Mol)
                                  104.06757 (Kcal/Mol)
 Warning -- explicit consideration of  24 degrees of freedom as
           vibrations may cause significant error
 Vibrational temperatures:     41.61    63.28    90.39   121.13   181.15
          (Kelvin)            229.91   250.79   271.93   327.70   340.60
                              367.54   390.54   426.50   450.24   480.87
                              518.75   548.32   556.58   644.66   668.12
                              724.76   740.39   816.47   857.70   997.42
                             1018.37  1023.74  1035.17  1045.63  1084.76
                             1166.08  1402.18  1429.96  1476.15  1489.65
                             1508.02  1559.24  1568.90  1642.00  1689.60
                             1775.51  1893.92  1926.47  1958.82  2000.14
                             2073.39  2095.25  2102.88  2113.32  2135.24
                             2149.16  2180.19  2223.84  2351.16  2401.68
                             2418.68  2444.38  4415.49  4420.73  4529.15
                             4538.01  4555.68  4565.59  5054.60  5167.60

 Zero-point correction=                           0.165842 (Hartree/Particle)
 Thermal correction to Energy=                    0.181008
 Thermal correction to Enthalpy=                  0.181953
 Thermal correction to Gibbs Free Energy=         0.122549
 Sum of electronic and zero-point Energies=           -968.190946
 Sum of electronic and thermal Energies=              -968.175780
 Sum of electronic and thermal Enthalpies=            -968.174835
 Sum of electronic and thermal Free Energies=         -968.234239

                     E (Thermal)             CV                S
                      KCal/Mol        Cal/Mol-Kelvin    Cal/Mol-Kelvin
 Total                  113.585             55.006            125.025
 Electronic               0.000              0.000              0.000
 Translational            0.889              2.981             42.328
 Rotational               0.889              2.981             32.563
 Vibrational            111.807             49.044             50.134
 Vibration     1          0.593              1.984              5.902
 Vibration     2          0.595              1.980              5.071
 Vibration     3          0.597              1.972              4.366
 Vibration     4          0.601              1.960              3.791
 Vibration     5          0.611              1.927              3.008
 Vibration     6          0.622              1.892              2.552
 Vibration     7          0.627              1.874              2.389
 Vibration     8          0.633              1.855              2.238
 Vibration     9          0.651              1.799              1.896
 Vibration    10          0.656              1.784              1.827
 Vibration    11          0.666              1.754              1.693
 Vibration    12          0.675              1.726              1.587
 Vibration    13          0.690              1.680              1.437
 Vibration    14          0.701              1.649              1.347
 Vibration    15          0.716              1.607              1.240
 Vibration    16          0.735              1.554              1.120
 Vibration    17          0.751              1.510              1.035
 Vibration    18          0.755              1.498              1.012
 Vibration    19          0.807              1.365              0.802
 Vibration    20          0.822              1.329              0.753
 Vibration    21          0.859              1.242              0.649
 Vibration    22          0.870              1.218              0.623
 Vibration    23          0.923              1.102              0.509
 Vibration    24          0.954              1.040              0.456

                           ! Non-Optimized Parameters !
 Normal termination of Gaussian 16 at Tue Jul 16 01:44:19 2024.
