 Gaussian 16, Revision B.01,
 Gaussian 16:  ES64L-G16RevB.01 20-Dec-2017

 ----------------------------------------------------------------------
 #P PBE1PBE/def2TZVP opt freq EmpiricalDispersion=GD3 Int=(grid=99590)
 scrf=(iefpcm, solvent=water)
 ----------------------------------------------------------------------

 ---------------------
 pfp_ester-oh reactant
 ---------------------
 Symbolic Z-matrix:
 Charge =  0 Multiplicity = 1

 SCF Done:  E(RPBE1PBE) =  -1030.41342345     A.U. after   12 cycles
 SCF Done:  E(RPBE1PBE) =  -1030.66098966     A.U. after   11 cycles
 SCF Done:  E(RPBE1PBE) =  -1030.83856379     A.U. after   12 cycles
 SCF Done:  E(RPBE1PBE) =  -1030.85303850     A.U. after   11 cycles
 SCF Done:  E(RPBE1PBE) =  -1030.85208624     A.U. after   12 cycles
 SCF Done:  E(RPBE1PBE) =  -1030.86010300     A.U. after   11 cycles
 SCF Done:  E(RPBE1PBE) =  -1030.86612157     A.U. after   13 cycles
 SCF Done:  E(RPBE1PBE) =  -1030.87044717     A.U. after   13 cycles
 SCF Done:  E(RPBE1PBE) =  -1030.87364557     A.U. after   11 cycles
 SCF Done:  E(RPBE1PBE) =  -1030.87518937     A.U. after   10 cycles
 SCF Done:  E(RPBE1PBE) =  -1030.87557382     A.U. after   10 cycles
 SCF Done:  E(RPBE1PBE) =  -1030.87561171     A.U. after    9 cycles
 SCF Done:  E(RPBE1PBE) =  -1030.87561572     A.U. after    9 cycles
 SCF Done:  E(RPBE1PBE) =  -1030.87561873     A.U. after    8 cycles
 SCF Done:  E(RPBE1PBE) =  -1030.87562109     A.U. after    8 cycles
 SCF Done:  E(RPBE1PBE) =  -1030.87562143     A.U. after    7 cycles
 SCF Done:  E(RPBE1PBE) =  -1030.87562188     A.U. after    7 cycles
 SCF Done:  E(RPBE1PBE) =  -1030.87562230     A.U. after    7 cycles
 SCF Done:  E(RPBE1PBE) =  -1030.87562247     A.U. after    7 cycles
 Optimization completed.
    -- Stationary point found.
 Normal termination of Gaussian 16 at Mon Aug 19 14:57:18 2024.

 ----------------------------------------------------------------------
 #P Geom=AllCheck Guess=TCheck SCRF=Check GenChk RPBE1PBE/def2TZVP Freq
 ----------------------------------------------------------------------

 Structure from the checkpoint file:  "/scratch/Gau-2963.chk"
 ---------------------
 pfp_ester-oh reactant
 ---------------------
 Charge =  0 Multiplicity = 1

                         Standard orientation:
 ---------------------------------------------------------------------
 Center     Atomic      Atomic             Coordinates (Angstroms)
 Number     Number       Type             X           Y           Z
 ---------------------------------------------------------------------
      1          8           0        2.160139   -0.378508    1.285352
      2          6           0        2.438305    0.012266    0.194734
      3          8           0        1.505586    0.331173   -0.753874
      4          6           0        0.190926    0.163698   -0.417803
      5          6           0       -0.372715   -1.099853   -0.329531
      6          6           0       -0.612204    1.275483   -0.220317
      7          6           0       -1.718531   -1.253993   -0.048122
      8          6           0       -1.961386    1.130839    0.055273
      9          6           0       -2.513564   -0.135776    0.143026
     10          9           0        0.382119   -2.171568   -0.519178
     11          9           0       -0.089579    2.489971   -0.294832
     12          9           0       -2.248904   -2.464841    0.035200
     13          9           0       -2.722747    2.199168    0.238352
     14          9           0       -3.802006   -0.278596    0.408172
     15          6           0        3.805383    0.239918   -0.378498
     16          1           0        3.850321    1.286113   -0.708396
     17          1           0        3.887014   -0.385699   -1.277262
     18          8           0        4.762254   -0.069365    0.590858
     19          1           0        5.631607    0.070487    0.204954
 ---------------------------------------------------------------------

 SCF Done:  E(RPBE1PBE) =  -1030.87562247     A.U. after    1 cycles

 The electronic state is 1-A.
 Alpha  occ. eigenvalues --  -24.82331 -24.82218 -24.82157 -24.82150 -24.82131
 Alpha  occ. eigenvalues --  -19.29503 -19.22640 -19.22563 -10.38013 -10.35201
 Alpha  occ. eigenvalues --  -10.35036 -10.35033 -10.34896 -10.34882 -10.32978
 Alpha  occ. eigenvalues --  -10.29688  -1.31675  -1.31075  -1.30534  -1.29712
 Alpha  occ. eigenvalues --   -1.29284  -1.18208  -1.09649  -1.07483  -0.94156
 Alpha  occ. eigenvalues --   -0.83595  -0.81960  -0.77883  -0.71105  -0.70591
 Alpha  occ. eigenvalues --   -0.65681  -0.63764  -0.63146  -0.60221  -0.58439
 Alpha  occ. eigenvalues --   -0.57595  -0.56795  -0.56585  -0.56348  -0.53900
 Alpha  occ. eigenvalues --   -0.53485  -0.52251  -0.51929  -0.51508  -0.50611
 Alpha  occ. eigenvalues --   -0.50025  -0.48175  -0.47611  -0.46182  -0.45823
 Alpha  occ. eigenvalues --   -0.44215  -0.43343  -0.41704  -0.39247  -0.38372
 Alpha  occ. eigenvalues --   -0.36785  -0.32750  -0.31371  -0.28441  -0.28084
 Alpha virt. eigenvalues --   -0.03152  -0.02219  -0.01853  -0.00993   0.04075
 Alpha virt. eigenvalues --    0.07042   0.07314   0.10360   0.11641   0.12642
 Alpha virt. eigenvalues --    0.13657   0.14965   0.17478   0.17777   0.17902

 Mulliken charges:
               1
     1  O   -0.332301
     2  C    0.350495
     3  O   -0.235998
     4  C    0.138492
     5  C    0.186727
     6  C    0.136345
     7  C    0.169647
     8  C    0.168396
     9  C    0.156171
    10  F   -0.167401
    11  F   -0.164515
    12  F   -0.166442
    13  F   -0.166779
    14  F   -0.163144
    15  C   -0.095770
    16  H    0.148802
    17  H    0.148758
    18  O   -0.460396
    19  H    0.348913
 Sum of Mulliken charges =  -0.00000

 Dipole moment (field-independent basis, Debye):
    X=              2.8522    Y=              1.3788    Z=             -3.9129  Tot=              5.0346
 Quadrupole moment (field-independent basis, Debye-Ang):
   XX=            -69.8384   YY=            -91.0907   ZZ=            -88.2567
   XY=              5.0407   XZ=            -11.8385   YZ=              1.4010

  Exact polarizability: 163.370   0.501 133.409  -8.700  -2.975  90.734
 Approx polarizability: 175.425   0.536 164.537 -13.844  -4.791 109.311

                      1                      2                      3
                      A                      A                      A
 Frequencies --     32.1253                55.9662                57.7083
 Red. masses --     10.0884                 5.8472                 7.8267
 Frc consts  --      0.0061                 0.0108                 0.0154
 IR Inten    --      2.4847                11.1244                 8.5090

                      4                      5                      6
                      A                      A                      A
 Frequencies --     89.1238               137.9766               143.1583
 Red. masses --      3.1972                17.1387                15.2940
 Frc consts  --      0.0150                 0.1922                 0.1847
 IR Inten    --     20.4548                 0.4674                 1.4190

                      7                      8                      9
                      A                      A                      A
 Frequencies --    178.8092               186.8677               224.1418
 Red. masses --      1.1207                11.9382                 7.0930
 Frc consts  --      0.0211                 0.2456                 0.2100
 IR Inten    --    158.4864                 5.3921                 6.1395

                     10                     11                     12
                      A                      A                      A
 Frequencies --    239.5502               274.0157               277.6698
 Red. masses --     11.5617                17.2651                16.6336
 Frc consts  --      0.3909                 0.7638                 0.7556
 IR Inten    --      1.8840                 0.2247                 0.2042

                     13                     14                     15
                      A                      A                      A
 Frequencies --    290.1528               314.5116               325.1223
 Red. masses --     13.7774                13.5687                13.5027
 Frc consts  --      0.6834                 0.7908                 0.8409
 IR Inten    --      0.7299                 3.9587                 5.4626

                     16                     17                     18
                      A                      A                      A
 Frequencies --    366.6256               385.0628               406.2367
 Red. masses --     12.0180                12.6636                12.5321
 Frc consts  --      0.9518                 1.1063                 1.2185
 IR Inten    --      0.6075                 0.1180                 3.2564

                     19                     20                     21
                      A                      A                      A
 Frequencies --    448.9316               490.7699               575.3749
 Red. masses --     15.4613                14.1344                 2.9257
 Frc consts  --      1.8359                 2.0058                 0.5707
 IR Inten    --      0.0117                 2.3263                14.6308

                     22                     23                     24
                      A                      A                      A
 Frequencies --    588.8913               640.3314               648.5522
 Red. masses --     16.6089                12.0504                10.3612
 Frc consts  --      3.3936                 2.9111                 2.5677
 IR Inten    --      1.8416                 5.6793                36.5166

                     25                     26                     27
                      A                      A                      A
 Frequencies --    675.6105               715.5650               763.3954
 Red. masses --     12.1653                 8.6855                 7.8276
 Frc consts  --      3.2717                 2.6203                 2.6877
 IR Inten    --      0.1575                 3.2119                 7.3716

                     28                     29                     30
                      A                      A                      A
 Frequencies --    802.1348               923.4552              1022.2116
 Red. masses --     11.4812                 8.1326                12.2658
 Frc consts  --      4.3524                 4.0861                 7.5514
 IR Inten    --      1.9471                49.8514               259.4261

                     31                     32                     33
                      A                      A                      A
 Frequencies --   1026.3158              1026.7327              1125.2125
 Red. masses --      2.5722                 7.3337                 9.9754
 Frc consts  --      1.5963                 4.5550                 7.4413
 IR Inten    --     65.7554               375.3375               854.4039

                     34                     35                     36
                      A                      A                      A
 Frequencies --   1178.4413              1184.2561              1185.2772
 Red. masses --      2.8036                10.2693                12.8754
 Frc consts  --      2.2939                 8.4856                10.6574
 IR Inten    --    229.7365                32.8660                15.4390

                     37                     38                     39
                      A                      A                      A
 Frequencies --   1244.8580              1266.0782              1338.4028
 Red. masses --      1.2926                 1.0848                11.9545
 Frc consts  --      1.1802                 1.0245                12.6170
 IR Inten    --     49.2203                 1.1794                 1.8733

                     40                     41                     42
                      A                      A                      A
 Frequencies --   1344.1168              1452.6525              1480.6881
 Red. masses --     12.1972                 1.2914                 1.3197
 Frc consts  --     12.9833                 1.6056                 1.7047
 IR Inten    --      4.4163                54.2476                30.2461

                     43                     44                     45
                      A                      A                      A
 Frequencies --   1522.8874              1564.4180              1566.0535
 Red. masses --     12.5707                12.3062                12.2871
 Frc consts  --     17.1769                17.7452                17.7547
 IR Inten    --     22.5765               531.8669               550.9094

                     46                     47                     48
                      A                      A                      A
 Frequencies --   1698.3612              1704.4754              1862.8036
 Red. masses --     12.0381                12.0275                12.3708
 Frc consts  --     20.4583                20.5877                25.2919
 IR Inten    --      0.6042                 8.7561               381.2883

                     49                     50                     51
                      A                      A                      A
 Frequencies --   3023.3259              3059.0295              3864.1472
 Red. masses --      1.0570                 1.1032                 1.0666
 Frc consts  --      5.6923                 6.0824                 9.3834
 IR Inten    --     35.6553                11.9224               116.9427

 - Thermochemistry -
 -------------------
 Temperature   298.150 Kelvin.  Pressure   1.00000 Atm.
 Atom     1 has atomic number  8 and mass  15.99491

 Molecular mass:   242.00024 amu.
 Principal axes and moments of inertia in atomic units:
                           1         2         3
     Eigenvalues --  1972.454355421.718276960.13993
           X            0.99999   0.00450  -0.00299
           Y           -0.00451   0.99999  -0.00265
           Z            0.00298   0.00266   0.99999
 This molecule is an asymmetric top.
 Rotational symmetry number  1.
 Warning -- assumption of classical behavior for rotation
           may cause significant error
 Rotational temperatures (Kelvin)      0.04391     0.01598     0.01244
 Rotational constants (GHZ):           0.91497     0.33287     0.25930
 Zero-point vibrational energy     281113.9 (Joules/Mol)
                                   67.18785 (Kcal/Mol)
 Warning -- explicit consideration of  22 degrees of freedom as
           vibrations may cause significant error
 Vibrational temperatures:     46.22    80.52    83.03   128.23   198.52
          (Kelvin)            205.97   257.27   268.86   322.49   344.66
                              394.25   399.50   417.47   452.51   467.78
                              527.49   554.02   584.48   645.91   706.11
                              827.84   847.28   921.29   933.12   972.05
                             1029.54  1098.36  1154.09  1328.65  1470.73
                             1476.64  1477.24  1618.93  1695.51  1703.88
                             1705.35  1791.07  1821.60  1925.66  1933.88
                             2090.04  2130.38  2191.10  2250.85  2253.20
                             2443.56  2452.36  2680.16  4349.89  4401.26
                             5559.65

 Zero-point correction=                           0.107071 (Hartree/Particle)
 Thermal correction to Energy=                    0.121600
 Thermal correction to Enthalpy=                  0.122544
 Thermal correction to Gibbs Free Energy=         0.064225
 Sum of electronic and zero-point Energies=          -1030.768552
 Sum of electronic and thermal Energies=             -1030.754023
 Sum of electronic and thermal Enthalpies=           -1030.753079
 Sum of electronic and thermal Free Energies=        -1030.811398

                     E (Thermal)             CV                S
                      KCal/Mol        Cal/Mol-Kelvin    Cal/Mol-Kelvin
 Total                   76.305             51.055            122.743
 Electronic               0.000              0.000              0.000
 Translational            0.889              2.981             42.352
 Rotational               0.889              2.981             32.676
 Vibrational             74.527             45.093             47.715
 Vibration     1          0.594              1.983              5.694
 Vibration     2          0.596              1.975              4.595
 Vibration     3          0.596              1.974              4.534
 Vibration     4          0.602              1.957              3.679
 Vibration     5          0.614              1.915              2.832
 Vibration     6          0.616              1.910              2.761
 Vibration     7          0.629              1.868              2.341
 Vibration     8          0.632              1.858              2.259
 Vibration     9          0.649              1.804              1.925
 Vibration    10          0.657              1.780              1.806
 Vibration    11          0.676              1.721              1.571
 Vibration    12          0.679              1.715              1.548
 Vibration    13          0.686              1.692              1.473
 Vibration    14          0.702              1.646              1.338
 Vibration    15          0.709              1.625              1.284
 Vibration    16          0.740              1.541              1.094
 Vibration    17          0.754              1.502              1.019
 Vibration    18          0.771              1.457              0.940
 Vibration    19          0.808              1.363              0.799
 Vibration    20          0.847              1.271              0.682
 Vibration    21          0.932              1.085              0.494
 Vibration    22          0.946              1.055              0.469

 Optimization completed.
    -- Stationary point found.
 Normal termination of Gaussian 16 at Mon Aug 19 15:11:17 2024.
