 Gaussian 16, Revision B.01,
 Gaussian 16:  ES64L-G16RevB.01 20-Dec-2017

 ----------------------------------------------------------------------
 #P PBE1PBE/def2TZVP opt freq EmpiricalDispersion=GD3 Int=(grid=99590)
 scrf=(iefpcm, solvent=water)
 ----------------------------------------------------------------------

 ------------------------
 tfp-pyridine-OH_product2
 ------------------------
 Symbolic Z-matrix:
 Charge =  0 Multiplicity = 1

 SCF Done:  E(RPBE1PBE) =  -720.014162309     A.U. after   11 cycles
 SCF Done:  E(RPBE1PBE) =  -720.027043341     A.U. after   10 cycles
 SCF Done:  E(RPBE1PBE) =  -720.027693832     A.U. after    9 cycles
 SCF Done:  E(RPBE1PBE) =  -720.027734149     A.U. after    8 cycles
 SCF Done:  E(RPBE1PBE) =  -720.027735812     A.U. after    7 cycles
 Optimization completed.
    -- Stationary point found.
 Normal termination of Gaussian 16 at Fri May  3 19:29:28 2024.

 ----------------------------------------------------------------------
 #P Geom=AllCheck Guess=TCheck SCRF=Check GenChk RPBE1PBE/def2TZVP Freq
 ----------------------------------------------------------------------

 Structure from the checkpoint file:  "/scratch/Gau-41967.chk"
 ------------------------
 tfp-pyridine-OH_product2
 ------------------------
 Charge =  0 Multiplicity = 1

                         Standard orientation:
 ---------------------------------------------------------------------
 Center     Atomic      Atomic             Coordinates (Angstroms)
 Number     Number       Type             X           Y           Z
 ---------------------------------------------------------------------
      1          6           0        1.121269   -0.970121    0.001861
      2          6           0        1.188067    0.410775   -0.004370
      3          6           0        0.000000    1.134937   -0.007284
      4          6           0       -1.188067    0.410775   -0.004370
      5          6           0       -1.121269   -0.970121    0.001861
      6          7           0        0.000000   -1.639014    0.004932
      7          8           0        0.000000    2.479728   -0.091483
      8          1           0        0.000000    2.882448    0.785986
      9          9           0       -2.353951    1.039592   -0.006687
     10          9           0        2.353951    1.039592   -0.006687
     11          9           0        2.246711   -1.669850    0.005863
     12          9           0       -2.246711   -1.669850    0.005863
 ---------------------------------------------------------------------

 SCF Done:  E(RPBE1PBE) =  -720.027735812     A.U. after    1 cycles

 The electronic state is 1-A.
 Alpha  occ. eigenvalues --  -24.81733 -24.81732 -24.81488 -24.81488 -19.26211
 Alpha  occ. eigenvalues --  -14.42572 -10.37191 -10.37190 -10.34370 -10.34368
 Alpha  occ. eigenvalues --  -10.33664  -1.30833  -1.30674  -1.29409  -1.29312
 Alpha  occ. eigenvalues --   -1.12414  -1.03188  -0.86765  -0.82088  -0.71634
 Alpha  occ. eigenvalues --   -0.71287  -0.63727  -0.63599  -0.61633  -0.58409
 Alpha  occ. eigenvalues --   -0.58000  -0.55729  -0.55636  -0.53145  -0.51308
 Alpha  occ. eigenvalues --   -0.50248  -0.48032  -0.47810  -0.45623  -0.45133
 Alpha  occ. eigenvalues --   -0.43742  -0.41130  -0.35958  -0.35032  -0.31505
 Alpha  occ. eigenvalues --   -0.27847
 Alpha virt. eigenvalues --   -0.04598  -0.01772   0.01096   0.07393   0.07467
 Alpha virt. eigenvalues --    0.10056   0.14652   0.15467   0.17087   0.18680
 Alpha virt. eigenvalues --    0.20714   0.20855   0.21272   0.24904   0.25412

 Mulliken charges:
               1
     1  C    0.234178
     2  C    0.150937
     3  C    0.130712
     4  C    0.150937
     5  C    0.234178
     6  N   -0.192667
     7  O   -0.430424
     8  H    0.382112
     9  F   -0.170161
    10  F   -0.170161
    11  F   -0.159821
    12  F   -0.159821
 Sum of Mulliken charges =   0.00000

 Dipole moment (field-independent basis, Debye):
    X=              0.0000    Y=              3.1001    Z=              1.7848  Tot=              3.5772
 Quadrupole moment (field-independent basis, Debye-Ang):
   XX=            -65.4868   YY=            -60.1985   ZZ=            -54.4957
   XY=              0.0000   XZ=              0.0000   YZ=              5.5197

  Exact polarizability: 104.709   0.000 102.871  -0.000   0.870  48.055
 Approx polarizability: 130.916   0.000 124.151  -0.000   0.420  56.277

 ******    1 imaginary frequencies (negative Signs) ******

                      1                      2                      3
                      A                      A                      A
 Frequencies --   -387.5283               121.3454               157.3252
 Red. masses --      1.0915                18.4875                 9.7025
 Frc consts  --      0.0966                 0.1604                 0.1415
 IR Inten    --    184.2043                 0.0433                 2.4240

                      4                      5                      6
                      A                      A                      A
 Frequencies --    213.6642               281.4128               287.3606
 Red. masses --     11.9420                17.9579                11.8216
 Frc consts  --      0.3212                 0.8379                 0.5751
 IR Inten    --      4.1864                 1.2822                 0.2761

                      7                      8                      9
                      A                      A                      A
 Frequencies --    322.3987               352.9241               353.6838
 Red. masses --     12.3848                11.7421                13.9606
 Frc consts  --      0.7584                 0.8617                 1.0289
 IR Inten    --      0.0331                 2.5715                 6.3480

                     10                     11                     12
                      A                      A                      A
 Frequencies --    446.5919               464.3926               488.1878
 Red. masses --     12.2037                15.5021                13.8308
 Frc consts  --      1.4340                 1.9698                 1.9421
 IR Inten    --      0.4827                 0.5470                 1.5862

                     13                     14                     15
                      A                      A                      A
 Frequencies --    611.6155               628.3412               711.0999
 Red. masses --     14.0277                 7.1233                15.3278
 Frc consts  --      3.0917                 1.6570                 4.5666
 IR Inten    --      0.9317                28.2401                 6.5865

                     16                     17                     18
                      A                      A                      A
 Frequencies --    712.1849               750.6952               769.7352
 Red. masses --     12.1813                12.7934                 9.4353
 Frc consts  --      3.6402                 4.2478                 3.2937
 IR Inten    --      0.0081                 0.0398                 9.8806

                     19                     20                     21
                      A                      A                      A
 Frequencies --    994.2829              1098.5040              1180.0076
 Red. masses --     14.4141                10.3042                13.6378
 Frc consts  --      8.3957                 7.3260                11.1883
 IR Inten    --    358.7623               498.2717                 0.0700

                     22                     23                     24
                      A                      A                      A
 Frequencies --   1211.6011              1326.7790              1354.2618
 Red. masses --      1.4352                 6.9870                12.3043
 Frc consts  --      1.2413                 7.2467                13.2957
 IR Inten    --     53.8605               110.3299                22.6726

                     25                     26                     27
                      A                      A                      A
 Frequencies --   1459.9878              1518.0448              1563.2485
 Red. masses --     12.3161                12.5799                 9.2236
 Frc consts  --     15.4675                17.0803                13.2803
 IR Inten    --     25.3510              1119.5727               162.7867

                     28                     29                     30
                      A                      A                      A
 Frequencies --   1676.4768              1692.0629              3807.1853
 Red. masses --     12.3875                11.7819                 1.0662
 Frc consts  --     20.5129                19.8747                 9.1051
 IR Inten    --      2.6818               170.3537               246.3646

 - Thermochemistry -
 -------------------
 Temperature   298.150 Kelvin.  Pressure   1.00000 Atm.
 Atom     1 has atomic number  6 and mass  12.00000

 Molecular mass:   166.99943 amu.
 Principal axes and moments of inertia in atomic units:
                           1         2         3
     Eigenvalues --  1193.123641668.157782855.98592
           X            1.00000   0.00000   0.00000
           Y           -0.00000   0.99998   0.00691
           Z           -0.00000  -0.00691   0.99998
 This molecule is an asymmetric top.
 Rotational symmetry number  1.
 Warning -- assumption of classical behavior for rotation
           may cause significant error
 Rotational temperatures (Kelvin)      0.07259     0.05192     0.03033
 Rotational constants (GHZ):           1.51262     1.08188     0.63192
    1 imaginary frequencies ignored.
 Zero-point vibrational energy     158836.6 (Joules/Mol)
                                   37.96285 (Kcal/Mol)
 Warning -- explicit consideration of  12 degrees of freedom as
           vibrations may cause significant error
 Vibrational temperatures:    174.59   226.36   307.42   404.89   413.45
          (Kelvin)            463.86   507.78   508.87   642.55   668.16
                              702.39   879.98   904.04  1023.11  1024.68
                             1080.08  1107.48  1430.55  1580.50  1697.77
                             1743.22  1908.94  1948.48  2100.60  2184.13
                             2249.17  2412.08  2434.50  5477.69

 Zero-point correction=                           0.060498 (Hartree/Particle)
 Thermal correction to Energy=                    0.068766
 Thermal correction to Enthalpy=                  0.069710
 Thermal correction to Gibbs Free Energy=         0.026882
 Sum of electronic and zero-point Energies=           -719.967238
 Sum of electronic and thermal Energies=              -719.958970
 Sum of electronic and thermal Enthalpies=            -719.958026
 Sum of electronic and thermal Free Energies=         -720.000854

                     E (Thermal)             CV                S
                      KCal/Mol        Cal/Mol-Kelvin    Cal/Mol-Kelvin
 Total                   43.151             30.418             90.140
 Electronic               0.000              0.000              0.000
 Translational            0.889              2.981             41.247
 Rotational               0.889              2.981             30.120
 Vibrational             41.374             24.457             18.773
 Vibration     1          0.609              1.931              3.079
 Vibration     2          0.621              1.894              2.582
 Vibration     3          0.644              1.820              2.012
 Vibration     4          0.681              1.708              1.525
 Vibration     5          0.685              1.697              1.489
 Vibration     6          0.707              1.631              1.298
 Vibration     7          0.729              1.569              1.153
 Vibration     8          0.730              1.568              1.150
 Vibration     9          0.806              1.368              0.806
 Vibration    10          0.822              1.329              0.753
 Vibration    11          0.844              1.276              0.688
 Vibration    12          0.971              1.007              0.430

 Optimization completed.
    -- Stationary point found.
 Normal termination of Gaussian 16 at Fri May  3 19:33:27 2024.
