 Gaussian 16, Revision B.01,
 Gaussian 16:  ES64L-G16RevB.01 20-Dec-2017

 ----------------------------------------------------------------------
 #P PBE1PBE/def2TZVP opt=(calcfc, ts, noeigentest) freq EmpiricalDisper
 sion=GD3 Int=(grid=99590) scrf=(iefpcm, solvent=water)
 ----------------------------------------------------------------------

 -----------------
 pfp-ome_ester ts1
 -----------------
 Symbolic Z-matrix:
 Charge =  0 Multiplicity = 1

 SCF Done:  E(RPBE1PBE) =  -1165.91367484     A.U. after   12 cycles
 SCF Done:  E(RPBE1PBE) =  -1165.91690500     A.U. after   11 cycles
 SCF Done:  E(RPBE1PBE) =  -1165.91791053     A.U. after   11 cycles
 SCF Done:  E(RPBE1PBE) =  -1165.91801652     A.U. after   10 cycles
 SCF Done:  E(RPBE1PBE) =  -1165.91789799     A.U. after   10 cycles
 SCF Done:  E(RPBE1PBE) =  -1165.91806413     A.U. after   10 cycles
 SCF Done:  E(RPBE1PBE) =  -1165.91808054     A.U. after    9 cycles
 SCF Done:  E(RPBE1PBE) =  -1165.91807333     A.U. after    9 cycles
 SCF Done:  E(RPBE1PBE) =  -1165.91806574     A.U. after    9 cycles
 SCF Done:  E(RPBE1PBE) =  -1165.91807204     A.U. after    9 cycles
 SCF Done:  E(RPBE1PBE) =  -1165.91806356     A.U. after   10 cycles
 SCF Done:  E(RPBE1PBE) =  -1165.91810003     A.U. after    9 cycles
 SCF Done:  E(RPBE1PBE) =  -1165.91810318     A.U. after    8 cycles
 SCF Done:  E(RPBE1PBE) =  -1165.91810206     A.U. after    8 cycles
 SCF Done:  E(RPBE1PBE) =  -1165.91810038     A.U. after    8 cycles
 SCF Done:  E(RPBE1PBE) =  -1165.91809981     A.U. after    7 cycles
 SCF Done:  E(RPBE1PBE) =  -1165.91809995     A.U. after    6 cycles
 SCF Done:  E(RPBE1PBE) =  -1165.91809983     A.U. after    6 cycles
 Optimization completed.
    -- Stationary point found.
 Normal termination of Gaussian 16 at Thu Aug 29 02:31:55 2024.

 ----------------------------------------------------------------------
 #P Geom=AllCheck Guess=TCheck SCRF=Check GenChk RPBE1PBE/def2TZVP Freq
 ----------------------------------------------------------------------

 Structure from the checkpoint file:  "/scratch/Gau-384244.chk"
 -----------------
 pfp-ome_ester ts1
 -----------------
 Charge =  0 Multiplicity = 1

                         Standard orientation:
 ---------------------------------------------------------------------
 Center     Atomic      Atomic             Coordinates (Angstroms)
 Number     Number       Type             X           Y           Z
 ---------------------------------------------------------------------
      1          1           0       -1.264954    2.458396   -0.273622
      2          8           0       -1.434113    0.286957    1.383466
      3          6           0       -1.865171    0.394962    0.237075
      4          7           0       -2.191794    2.069648   -0.124469
      5          1           0       -2.691563    2.161099   -1.005217
      6          6           0       -2.874142    2.764351    0.968178
      7          1           0       -3.914538    2.448122    1.009886
      8          1           0       -2.374358    2.493041    1.896679
      9          1           0       -2.830453    3.843393    0.823750
     10          6           0       -3.165725   -0.261789   -0.211848
     11          1           0       -3.992061    0.200986    0.346826
     12          1           0       -3.330265   -0.083174   -1.283771
     13          8           0       -0.896402    0.157692   -0.879378
     14          6           0        0.388134    0.013962   -0.509085
     15          6           0        1.262499    1.094855   -0.481547
     16          6           0        0.910880   -1.233970   -0.182854
     17          6           0        2.599070    0.950485   -0.157437
     18          6           0        2.245800   -1.396221    0.145238
     19          6           0        3.093966   -0.302444    0.159172
     20          9           0        0.807479    2.314422   -0.777639
     21          9           0        0.125450   -2.302216   -0.194358
     22          9           0        3.405487    2.004803   -0.146278
     23          9           0        2.718053   -2.599944    0.446922
     24          9           0        4.373829   -0.454513    0.471624
     25          8           0       -3.092053   -1.630232    0.060603
     26          6           0       -4.266316   -2.306533   -0.319184
     27          1           0       -4.131165   -3.359508   -0.072256
     28          1           0       -5.141953   -1.921531    0.219918
     29          1           0       -4.452223   -2.212608   -1.397149
 ---------------------------------------------------------------------

 SCF Done:  E(RPBE1PBE) =  -1165.91809983     A.U. after    1 cycles

 The electronic state is 1-A.
 Alpha  occ. eigenvalues --  -24.81965 -24.81769 -24.81652 -24.81540 -24.80949
 Alpha  occ. eigenvalues --  -19.24011 -19.22003 -19.15690 -14.45609 -10.36308
 Alpha  occ. eigenvalues --  -10.34318 -10.34149 -10.34035 -10.33815 -10.33612
 Alpha  occ. eigenvalues --  -10.31257 -10.27347 -10.26106 -10.26004  -1.31003
 Alpha  occ. eigenvalues --   -1.30376  -1.29719  -1.28947  -1.28502  -1.12029
 Alpha  occ. eigenvalues --   -1.07843  -1.03474  -0.97863  -0.92788  -0.81082
 Alpha  occ. eigenvalues --   -0.80971  -0.77301  -0.72742  -0.70119  -0.69643
 Alpha  occ. eigenvalues --   -0.67876  -0.63361  -0.62673  -0.62074  -0.59409
 Alpha  occ. eigenvalues --   -0.57695  -0.57473  -0.56831  -0.55799  -0.55309
 Alpha  occ. eigenvalues --   -0.54818  -0.52822  -0.52145  -0.51835  -0.50126
 Alpha  occ. eigenvalues --   -0.49850  -0.49749  -0.49347  -0.48048  -0.47831
 Alpha  occ. eigenvalues --   -0.47485  -0.47000  -0.44828  -0.44500  -0.43369
 Alpha  occ. eigenvalues --   -0.41756  -0.41629  -0.41071  -0.40420  -0.39932
 Alpha  occ. eigenvalues --   -0.37043  -0.34942  -0.32934  -0.29789  -0.28104
 Alpha  occ. eigenvalues --   -0.27335  -0.27203  -0.26548
 Alpha virt. eigenvalues --   -0.02050  -0.01373  -0.01142   0.03726   0.05380
 Alpha virt. eigenvalues --    0.07088   0.07908   0.08217   0.08854   0.10000
 Alpha virt. eigenvalues --    0.11141   0.11749   0.12216   0.12451   0.13360

 Mulliken charges:
               1
     1  H    0.262181
     2  O   -0.502480
     3  C    0.341396
     4  N   -0.199566
     5  H    0.281523
     6  C   -0.322215
     7  H    0.162145
     8  H    0.161147
     9  H    0.167337
    10  C   -0.149674
    11  H    0.111775
    12  H    0.113891
    13  O   -0.325668
    14  C    0.136708
    15  C    0.189262
    16  C    0.148582
    17  C    0.136909
    18  C    0.145447
    19  C    0.164535
    20  F   -0.196003
    21  F   -0.171643
    22  F   -0.172664
    23  F   -0.173590
    24  F   -0.171231
    25  O   -0.286750
    26  C   -0.239308
    27  H    0.143423
    28  H    0.122009
    29  H    0.122526
 Sum of Mulliken charges =  -0.00000

 Dipole moment (field-independent basis, Debye):
    X=             -6.5580    Y=              6.3827    Z=             -3.5813  Tot=              9.8271
 Quadrupole moment (field-independent basis, Debye-Ang):
   XX=            -88.0250   YY=            -95.8709   ZZ=           -109.3394
   XY=            -12.6678   XZ=              5.1600   YZ=              1.5801

  Exact polarizability: 211.536  -3.411 197.114   9.477  -6.907 132.340
 Approx polarizability: 223.787  -1.961 221.802  16.422 -13.678 153.151

 ******    1 imaginary frequencies (negative Signs) ******

                      1                      2                      3
                      A                      A                      A
 Frequencies --    -15.1639                45.8484                52.9895
 Red. masses --      6.0633                 4.4137                 7.7552
 Frc consts  --      0.0008                 0.0055                 0.0128
 IR Inten    --      6.0479                 2.8474                13.5498

                      4                      5                      6
                      A                      A                      A
 Frequencies --     66.9178                74.3923                95.5304
 Red. masses --      2.4503                 3.5781                 2.5525
 Frc consts  --      0.0065                 0.0117                 0.0137
 IR Inten    --      7.8680                30.3851                 5.3293

                      7                      8                      9
                      A                      A                      A
 Frequencies --    110.0537               139.5040               145.8995
 Red. masses --      4.8779                15.8743                 9.1926
 Frc consts  --      0.0348                 0.1820                 0.1153
 IR Inten    --     73.4829                 0.3622                 4.7172

                     10                     11                     12
                      A                      A                      A
 Frequencies --    164.5836               171.7713               185.6134
 Red. masses --      1.7397                 3.8046                13.9786
 Frc consts  --      0.0278                 0.0661                 0.2837
 IR Inten    --     38.9527                 2.6515                 0.1576

                     13                     14                     15
                      A                      A                      A
 Frequencies --    216.6818               231.2224               236.6553
 Red. masses --      1.6953                 2.2816                 3.4275
 Frc consts  --      0.0469                 0.0719                 0.1131
 IR Inten    --     11.8691                 3.6774                 8.1160

                     16                     17                     18
                      A                      A                      A
 Frequencies --    270.8157               275.3651               286.3619
 Red. masses --      4.6548                16.4724                 5.2272
 Frc consts  --      0.2011                 0.7359                 0.2526
 IR Inten    --     12.0021                 4.4704                 1.9314

                     19                     20                     21
                      A                      A                      A
 Frequencies --    293.7389               317.8859               336.3963
 Red. masses --      6.8376                10.2102                 4.2043
 Frc consts  --      0.3476                 0.6079                 0.2803
 IR Inten    --     63.0384                28.8663                 2.4773

                     22                     23                     24
                      A                      A                      A
 Frequencies --    346.4508               378.8617               384.3339
 Red. masses --      8.3717                 5.4077                 6.2072
 Frc consts  --      0.5920                 0.4573                 0.5402
 IR Inten    --      2.3076                11.3438                 3.6266

                     25                     26                     27
                      A                      A                      A
 Frequencies --    384.9235               416.0079               454.2157
 Red. masses --      9.9212                 6.9874                14.5197
 Frc consts  --      0.8661                 0.7125                 1.7650
 IR Inten    --      3.7169                39.7356                 1.5491

                     28                     29                     30
                      A                      A                      A
 Frequencies --    483.6308               580.7977               584.5590
 Red. masses --      9.8812                10.8639                 7.7772
 Frc consts  --      1.3617                 2.1592                 1.5658
 IR Inten    --      9.3485                 3.3547                72.0086

                     31                     32                     33
                      A                      A                      A
 Frequencies --    611.0114               666.8819               672.9610
 Red. masses --      6.6865                 2.9075                10.4567
 Frc consts  --      1.4708                 0.7618                 2.7901
 IR Inten    --     51.8664               210.4404                 8.4372

                     34                     35                     36
                      A                      A                      A
 Frequencies --    706.4759               725.5754               788.2072
 Red. masses --      9.0232                 5.0537                 9.4414
 Frc consts  --      2.6534                 1.5676                 3.4559
 IR Inten    --     42.6333               148.1122                12.0963

                     37                     38                     39
                      A                      A                      A
 Frequencies --    799.2183               809.0588               973.6703
 Red. masses --     10.3405                 2.3605                 1.8040
 Frc consts  --      3.8915                 0.9104                 1.0076
 IR Inten    --      3.5114               118.5092                67.9421

                     40                     41                     42
                      A                      A                      A
 Frequencies --   1015.6134              1019.3471              1029.4628
 Red. masses --     13.3456                 3.6580                 4.3166
 Frc consts  --      8.1104                 2.2394                 2.6953
 IR Inten    --    444.9860               199.1799               520.3597

                     43                     44                     45
                      A                      A                      A
 Frequencies --   1042.6895              1059.8420              1080.5934
 Red. masses --      1.8719                 1.6857                 3.0573
 Frc consts  --      1.1991                 1.1156                 2.1033
 IR Inten    --     49.5786                69.0218                85.1040

                     46                     47                     48
                      A                      A                      A
 Frequencies --   1127.7292              1169.4920              1175.7804
 Red. masses --      1.9737                12.6186                 2.6487
 Frc consts  --      1.4789                10.1685                 2.1574
 IR Inten    --    166.9771                 3.3367               120.5054

                     49                     50                     51
                      A                      A                      A
 Frequencies --   1178.3444              1196.4438              1232.7653
 Red. masses --      1.4329                 6.6336                 2.2047
 Frc consts  --      1.1722                 5.5948                 1.9741
 IR Inten    --      6.4474                 1.0517                66.1836

                     52                     53                     54
                      A                      A                      A
 Frequencies --   1273.1021              1297.2918              1329.7732
 Red. masses --      1.2999                 1.1555                11.4265
 Frc consts  --      1.2414                 1.1458                11.9047
 IR Inten    --     56.5521                71.5685                 2.5383

                     55                     56                     57
                      A                      A                      A
 Frequencies --   1341.0610              1343.3070              1420.5032
 Red. masses --      5.6937                 1.4373                 1.3816
 Frc consts  --      6.0331                 1.5280                 1.6425
 IR Inten    --      4.0566                25.3443                15.9409

                     58                     59                     60
                      A                      A                      A
 Frequencies --   1439.4082              1466.6369              1472.0007
 Red. masses --      1.1821                 1.1434                 1.0418
 Frc consts  --      1.4430                 1.4491                 1.3300
 IR Inten    --     14.5627                 5.1468                13.0305

                     61                     62                     63
                      A                      A                      A
 Frequencies --   1484.5488              1486.8979              1491.8945
 Red. masses --      1.0571                 1.0394                 1.0476
 Frc consts  --      1.3726                 1.3540                 1.3738
 IR Inten    --     25.9491                15.0982                14.6093

                     64                     65                     66
                      A                      A                      A
 Frequencies --   1504.5471              1514.5510              1552.8520
 Red. masses --      1.1200                 9.8282                12.2062
 Frc consts  --      1.4938                13.2829                17.3417
 IR Inten    --      5.0538                45.5799               554.7510

                     67                     68                     69
                      A                      A                      A
 Frequencies --   1561.7463              1632.2052              1641.6141
 Red. masses --     12.1214                 1.8853                 2.0131
 Frc consts  --     17.4190                 2.9592                 3.1964
 IR Inten    --    492.4404               168.7624               380.4488

                     70                     71                     72
                      A                      A                      A
 Frequencies --   1685.3347              1704.4558              2991.3333
 Red. masses --     12.0339                11.9385                 1.0484
 Frc consts  --     20.1386                20.4348                 5.5272
 IR Inten    --      6.4586                 2.6035                52.6093

                     73                     74                     75
                      A                      A                      A
 Frequencies --   2999.2686              3034.4997              3052.6840
 Red. masses --      1.0415                 1.1053                 1.1053
 Frc consts  --      5.5202                 5.9965                 6.0685
 IR Inten    --     94.1244                99.2555                44.0481

                     76                     77                     78
                      A                      A                      A
 Frequencies --   3082.5969              3139.1152              3168.5127
 Red. masses --      1.0326                 1.0987                 1.1056
 Frc consts  --      5.7814                 6.3789                 6.5400
 IR Inten    --     26.7655                34.1316                 6.7136

                     79                     80                     81
                      A                      A                      A
 Frequencies --   3181.3829              3499.9019              3570.6779
 Red. masses --      1.1060                 1.0517                 1.0951
 Frc consts  --      6.5955                 7.5903                 8.2262
 IR Inten    --      7.4120                54.4217               111.5263

 - Thermochemistry -
 -------------------
 Temperature   298.150 Kelvin.  Pressure   1.00000 Atm.
 Atom     1 has atomic number  1 and mass   1.00783

 Molecular mass:   287.05808 amu.
 Principal axes and moments of inertia in atomic units:
                           1         2         3
     Eigenvalues --  3194.124807093.562589611.35692
           X            1.00000  -0.00238  -0.00096
           Y            0.00239   0.99981   0.01923
           Z            0.00091  -0.01924   0.99981
 This molecule is an asymmetric top.
 Rotational symmetry number  1.
 Warning -- assumption of classical behavior for rotation
           may cause significant error
 Rotational temperatures (Kelvin)      0.02712     0.01221     0.00901
 Rotational constants (GHZ):           0.56502     0.25442     0.18777
    1 imaginary frequencies ignored.
 Zero-point vibrational energy     533396.2 (Joules/Mol)
                                  127.48475 (Kcal/Mol)
 Warning -- explicit consideration of  30 degrees of freedom as
           vibrations may cause significant error
 Vibrational temperatures:     65.97    76.24    96.28   107.03   137.45
          (Kelvin)            158.34   200.72   209.92   236.80   247.14
                              267.06   311.76   332.68   340.49   389.64
                              396.19   412.01   422.62   457.37   484.00
                              498.47   545.10   552.97   553.82   598.54
                              653.52   695.84   835.64   841.05   879.11
                              959.49   968.24  1016.46  1043.94  1134.05
                             1149.90  1164.06  1400.89  1461.24  1466.61
                             1481.17  1500.20  1524.88  1554.73  1622.55
                             1682.64  1691.69  1695.37  1721.42  1773.67
                             1831.71  1866.51  1913.25  1929.49  1932.72
                             2043.79  2070.99  2110.16  2117.88  2135.93
                             2139.31  2146.50  2164.71  2179.10  2234.21
                             2247.00  2348.38  2361.92  2424.82  2452.33
                             4303.86  4315.28  4365.97  4392.13  4435.17
                             4516.49  4558.78  4577.30  5035.58  5137.41

 Zero-point correction=                           0.203160 (Hartree/Particle)
 Thermal correction to Energy=                    0.221721
 Thermal correction to Enthalpy=                  0.222665
 Thermal correction to Gibbs Free Energy=         0.156377
 Sum of electronic and zero-point Energies=          -1165.714940
 Sum of electronic and thermal Energies=             -1165.696379
 Sum of electronic and thermal Enthalpies=           -1165.695435
 Sum of electronic and thermal Free Energies=        -1165.761723

                     E (Thermal)             CV                S
                      KCal/Mol        Cal/Mol-Kelvin    Cal/Mol-Kelvin
 Total                  139.132             66.773            139.515
 Electronic               0.000              0.000              0.000
 Translational            0.889              2.981             42.861
 Rotational               0.889              2.981             33.743
 Vibrational            137.355             60.811             62.911
 Vibration     1          0.595              1.979              4.989
 Vibration     2          0.596              1.976              4.703
 Vibration     3          0.598              1.970              4.242
 Vibration     4          0.599              1.966              4.034
 Vibration     5          0.603              1.952              3.544
 Vibration     6          0.606              1.941              3.268
 Vibration     7          0.615              1.914              2.811
 Vibration     8          0.617              1.907              2.725
 Vibration     9          0.623              1.886              2.496
 Vibration    10          0.626              1.877              2.416
 Vibration    11          0.632              1.860              2.271
 Vibration    12          0.646              1.816              1.987
 Vibration    13          0.653              1.793              1.869
 Vibration    14          0.656              1.785              1.828
 Vibration    15          0.675              1.727              1.591
 Vibration    16          0.677              1.719              1.562
 Vibration    17          0.684              1.699              1.495
 Vibration    18          0.689              1.685              1.452
 Vibration    19          0.704              1.639              1.321
 Vibration    20          0.717              1.603              1.229
 Vibration    21          0.724              1.582              1.182
 Vibration    22          0.749              1.515              1.044
 Vibration    23          0.753              1.504              1.022
 Vibration    24          0.754              1.502              1.020
 Vibration    25          0.779              1.435              0.906
 Vibration    26          0.813              1.352              0.783
 Vibration    27          0.840              1.286              0.700
 Vibration    28          0.937              1.073              0.484
 Vibration    29          0.942              1.065              0.477
 Vibration    30          0.970              1.009              0.431

 Optimization completed.
    -- Stationary point found.
 Normal termination of Gaussian 16 at Thu Aug 29 02:56:00 2024.
