 Gaussian 16, Revision B.01,
 Gaussian 16:  ES64L-G16RevB.01 20-Dec-2017

 ----------------------------------------------------------------------
 #P PBE1PBE/def2TZVP opt freq EmpiricalDispersion=GD3 Int=(grid=99590)
 scrf=(iefpcm, solvent=water)
 ----------------------------------------------------------------------

 ------------------
 tfp-pyridine-ester
 ------------------
 Symbolic Z-matrix:
 Charge =  0 Multiplicity = 1

 SCF Done:  E(RPBE1PBE) =  -872.556082221     A.U. after   13 cycles
 SCF Done:  E(RPBE1PBE) =  -872.575229654     A.U. after   11 cycles
 SCF Done:  E(RPBE1PBE) =  -872.576659679     A.U. after   10 cycles
 SCF Done:  E(RPBE1PBE) =  -872.576702750     A.U. after    9 cycles
 SCF Done:  E(RPBE1PBE) =  -872.576703691     A.U. after    7 cycles
 SCF Done:  E(RPBE1PBE) =  -872.576704115     A.U. after    7 cycles
 SCF Done:  E(RPBE1PBE) =  -872.576705105     A.U. after    7 cycles
 SCF Done:  E(RPBE1PBE) =  -872.576705237     A.U. after    7 cycles
 SCF Done:  E(RPBE1PBE) =  -872.576706861     A.U. after    9 cycles
 SCF Done:  E(RPBE1PBE) =  -872.571879347     A.U. after   13 cycles
 SCF Done:  E(RPBE1PBE) =  -872.577042118     A.U. after   10 cycles
 SCF Done:  E(RPBE1PBE) =  -872.573289747     A.U. after   11 cycles
 SCF Done:  E(RPBE1PBE) =  -872.577049003     A.U. after   10 cycles
 SCF Done:  E(RPBE1PBE) =  -872.577093759     A.U. after    6 cycles
 SCF Done:  E(RPBE1PBE) =  -872.577110844     A.U. after    8 cycles
 SCF Done:  E(RPBE1PBE) =  -872.577111078     A.U. after    7 cycles
 SCF Done:  E(RPBE1PBE) =  -872.577111344     A.U. after    7 cycles
 SCF Done:  E(RPBE1PBE) =  -872.577111387     A.U. after    6 cycles
 SCF Done:  E(RPBE1PBE) =  -872.577111379     A.U. after    5 cycles
 Optimization completed.
    -- Stationary point found.
 Normal termination of Gaussian 16 at Tue Jul  2 22:56:01 2024.

 ----------------------------------------------------------------------
 #P Geom=AllCheck Guess=TCheck SCRF=Check GenChk RPBE1PBE/def2TZVP Freq
 ----------------------------------------------------------------------

 Structure from the checkpoint file:  "/scratch/Gau-307106.chk"
 ------------------
 tfp-pyridine-ester
 ------------------
 Charge =  0 Multiplicity = 1

                         Standard orientation:
 ---------------------------------------------------------------------
 Center     Atomic      Atomic             Coordinates (Angstroms)
 Number     Number       Type             X           Y           Z
 ---------------------------------------------------------------------
      1          6           0       -1.948885   -0.923306    0.084945
      2          6           0       -0.620282   -1.233980   -0.143854
      3          6           0        0.274166   -0.187890   -0.318306
      4          6           0       -0.213250    1.110226   -0.250513
      5          6           0       -1.563258    1.286001   -0.009818
      6          7           0       -2.401951    0.298577    0.151312
      7          8           0        1.570372   -0.455641   -0.612566
      8          6           0        2.527459   -0.087800    0.313155
      9          8           0        2.233695    0.392479    1.364970
     10          6           0        3.883235   -0.388555   -0.213005
     11          1           0        3.944937   -1.440942   -0.494068
     12          1           0        4.058088    0.203466   -1.113620
     13          1           0        4.627993   -0.151751    0.541501
     14          9           0       -0.205040   -2.488854   -0.195764
     15          9           0        0.596104    2.141911   -0.425419
     16          9           0       -2.048445    2.515450    0.059835
     17          9           0       -2.818730   -1.906694    0.251586
 ---------------------------------------------------------------------

 SCF Done:  E(RPBE1PBE) =  -872.577111379     A.U. after    1 cycles

 The electronic state is 1-A.
 Alpha  occ. eigenvalues --  -24.82328 -24.82238 -24.81800 -24.81790 -19.29684
 Alpha  occ. eigenvalues --  -19.22575 -14.42970 -10.38443 -10.37644 -10.37633
 Alpha  occ. eigenvalues --  -10.35124 -10.35114 -10.34473 -10.24052  -1.31316
 Alpha  occ. eigenvalues --   -1.31150  -1.29904  -1.29786  -1.18368  -1.09430
 Alpha  occ. eigenvalues --   -1.03650  -0.88447  -0.82633  -0.80472  -0.72793
 Alpha  occ. eigenvalues --   -0.71844  -0.66373  -0.64313  -0.62286  -0.60467
 Alpha  occ. eigenvalues --   -0.58530  -0.56679  -0.56521  -0.53888  -0.53514
 Alpha  occ. eigenvalues --   -0.53239  -0.51032  -0.50713  -0.50079  -0.48361
 Alpha  occ. eigenvalues --   -0.46879  -0.46056  -0.44681  -0.44154  -0.43177
 Alpha  occ. eigenvalues --   -0.41584  -0.41261  -0.37359  -0.35353  -0.33054
 Alpha  occ. eigenvalues --   -0.31816  -0.28233
 Alpha virt. eigenvalues --   -0.05364  -0.02195  -0.01233   0.01615   0.06404
 Alpha virt. eigenvalues --    0.07079   0.09539   0.11628   0.12766   0.13515
 Alpha virt. eigenvalues --    0.13800   0.15709   0.16126   0.17009   0.18846

 Mulliken charges:
               1
     1  C    0.240383
     2  C    0.122276
     3  C    0.159301
     4  C    0.163575
     5  C    0.240390
     6  N   -0.187071
     7  O   -0.222356
     8  C    0.326334
     9  O   -0.328287
    10  C   -0.367621
    11  H    0.169449
    12  H    0.170018
    13  H    0.157358
    14  F   -0.165056
    15  F   -0.167297
    16  F   -0.155663
    17  F   -0.155733
 Sum of Mulliken charges =  -0.00000

 Dipole moment (field-independent basis, Debye):
    X=              4.2833    Y=             -1.3050    Z=             -2.3377  Tot=              5.0512
 Quadrupole moment (field-independent basis, Debye-Ang):
   XX=            -69.7479   YY=            -80.5648   ZZ=            -76.7726
   XY=             -2.7316   XZ=             -3.5815   YZ=             -1.5923

  Exact polarizability: 145.819  -0.096 128.475  -6.658   3.193  80.835
 Approx polarizability: 157.042   1.171 160.362 -10.967   5.240  97.287

                      1                      2                      3
                      A                      A                      A
 Frequencies --     48.0772                58.3397                82.2863
 Red. masses --      8.2879                 2.4491                 8.4866
 Frc consts  --      0.0113                 0.0049                 0.0339
 IR Inten    --      2.0826                 4.8318                 1.1344

                      4                      5                      6
                      A                      A                      A
 Frequencies --     96.1331               123.5389               170.1217
 Red. masses --      1.2927                18.3526                14.8328
 Frc consts  --      0.0070                 0.1650                 0.2529
 IR Inten    --      0.5211                 0.0273                 0.4014

                      7                      8                      9
                      A                      A                      A
 Frequencies --    237.2533               266.2910               287.6049
 Red. masses --     14.1486                 8.0050                14.0418
 Frc consts  --      0.4692                 0.3344                 0.6843
 IR Inten    --      4.0331                 5.8809                 0.9586

                     10                     11                     12
                      A                      A                      A
 Frequencies --    309.2955               323.9529               366.8874
 Red. masses --      7.4332                12.0354                10.0051
 Frc consts  --      0.4190                 0.7442                 0.7935
 IR Inten    --      1.4389                 2.1866                 4.1862

                     13                     14                     15
                      A                      A                      A
 Frequencies --    386.9407               449.0280               463.3079
 Red. masses --      9.3383                12.6613                15.7061
 Frc consts  --      0.8238                 1.5041                 1.9864
 IR Inten    --      3.7029                 0.4991                 0.3387

                     16                     17                     18
                      A                      A                      A
 Frequencies --    502.4232               583.0067               589.8929
 Red. masses --      8.4350                 6.0951                 3.1076
 Frc consts  --      1.2545                 1.2206                 0.6371
 IR Inten    --     16.4037                25.2198                 8.3535

                     19                     20                     21
                      A                      A                      A
 Frequencies --    615.1482               705.6006               713.5315
 Red. masses --      8.3455                13.1784                12.1844
 Frc consts  --      1.8606                 3.8657                 3.6549
 IR Inten    --     16.2665                 4.0482                 0.2489

                     22                     23                     24
                      A                      A                      A
 Frequencies --    725.0283               756.5588               787.3414
 Red. masses --     10.4985                11.8514                 9.3964
 Frc consts  --      3.2515                 3.9967                 3.4319
 IR Inten    --      3.7698                 1.7224                 7.9003

                     25                     26                     27
                      A                      A                      A
 Frequencies --    890.5532               998.8834              1016.6259
 Red. masses --      6.8736                 5.0424                 2.6725
 Frc consts  --      3.2119                 2.9643                 1.6274
 IR Inten    --     64.4434               305.5695                83.5353

                     28                     29                     30
                      A                      A                      A
 Frequencies --   1059.0085              1106.4116              1187.3080
 Red. masses --      1.8399                11.5860                11.5134
 Frc consts  --      1.2157                 8.3564                 9.5627
 IR Inten    --     23.1149               642.5753                24.7418

                     31                     32                     33
                      A                      A                      A
 Frequencies --   1195.2469              1312.4892              1359.7743
 Red. masses --      3.4851                10.9376                12.1105
 Frc consts  --      2.9335                11.1010                13.1931
 IR Inten    --    555.8407                74.4960                46.2651

                     34                     35                     36
                      A                      A                      A
 Frequencies --   1389.3515              1445.1715              1450.9161
 Red. masses --      1.3476                 1.0526                 1.0452
 Frc consts  --      1.5326                 1.2953                 1.2964
 IR Inten    --    110.5832                27.3456                20.2157

                     37                     38                     39
                      A                      A                      A
 Frequencies --   1462.8335              1522.7625              1549.1547
 Red. masses --     12.5339                12.6141                12.3409
 Frc consts  --     15.8025                17.2334                17.4496
 IR Inten    --     15.9389              1096.8161               179.8759

                     40                     41                     42
                      A                      A                      A
 Frequencies --   1687.1993              1693.6210              1852.7541
 Red. masses --     12.3569                12.1267                11.9619
 Frc consts  --     20.7249                20.4939                24.1929
 IR Inten    --      8.5965               131.2438               401.4207

                     43                     44                     45
                      A                      A                      A
 Frequencies --   3077.2713              3149.8067              3199.6500
 Red. masses --      1.0371                 1.0997                 1.1042
 Frc consts  --      5.7865                 6.4284                 6.6607
 IR Inten    --      0.5597                 0.2032                 3.3499

 - Thermochemistry -
 -------------------
 Temperature   298.150 Kelvin.  Pressure   1.00000 Atm.
 Atom     1 has atomic number  6 and mass  12.00000

 Molecular mass:   209.00999 amu.
 Principal axes and moments of inertia in atomic units:
                           1         2         3
     Eigenvalues --  1842.566533131.278224635.58742
           X            0.99977  -0.02119  -0.00378
           Y            0.02120   0.99977   0.00283
           Z            0.00372  -0.00291   0.99999
 This molecule is an asymmetric top.
 Rotational symmetry number  1.
 Warning -- assumption of classical behavior for rotation
           may cause significant error
 Rotational temperatures (Kelvin)      0.04701     0.02766     0.01868
 Rotational constants (GHZ):           0.97947     0.57636     0.38932
 Zero-point vibrational energy     258718.7 (Joules/Mol)
                                   61.83525 (Kcal/Mol)
 Warning -- explicit consideration of  19 degrees of freedom as
           vibrations may cause significant error
 Vibrational temperatures:     69.17    83.94   118.39   138.31   177.74
          (Kelvin)            244.77   341.35   383.13   413.80   445.01
                              466.10   527.87   556.72   646.05   666.60
                              722.87   838.82   848.72   885.06  1015.20
                             1026.61  1043.15  1088.52  1132.81  1281.31
                             1437.17  1462.70  1523.68  1591.88  1708.27
                             1719.69  1888.38  1956.41  1998.97  2079.28
                             2087.54  2104.69  2190.92  2228.89  2427.50
                             2436.74  2665.70  4427.51  4531.87  4603.58

 Zero-point correction=                           0.098541 (Hartree/Particle)
 Thermal correction to Energy=                    0.110706
 Thermal correction to Enthalpy=                  0.111650
 Thermal correction to Gibbs Free Energy=         0.058854
 Sum of electronic and zero-point Energies=           -872.478571
 Sum of electronic and thermal Energies=              -872.466405
 Sum of electronic and thermal Enthalpies=            -872.465461
 Sum of electronic and thermal Free Energies=         -872.518257

                     E (Thermal)             CV                S
                      KCal/Mol        Cal/Mol-Kelvin    Cal/Mol-Kelvin
 Total                   69.469             43.165            111.119
 Electronic               0.000              0.000              0.000
 Translational            0.889              2.981             41.915
 Rotational               0.889              2.981             31.659
 Vibrational             67.692             37.204             37.544
 Vibration     1          0.595              1.978              4.895
 Vibration     2          0.596              1.974              4.513
 Vibration     3          0.600              1.961              3.836
 Vibration     4          0.603              1.952              3.531
 Vibration     5          0.610              1.929              3.044
 Vibration     6          0.625              1.879              2.434
 Vibration     7          0.656              1.784              1.823
 Vibration     8          0.672              1.735              1.620
 Vibration     9          0.685              1.697              1.488
 Vibration    10          0.699              1.656              1.366
 Vibration    11          0.709              1.628              1.290
 Vibration    12          0.740              1.540              1.093
 Vibration    13          0.755              1.498              1.012
 Vibration    14          0.808              1.363              0.799
 Vibration    15          0.821              1.331              0.757
 Vibration    16          0.858              1.245              0.652
 Vibration    17          0.940              1.068              0.480
 Vibration    18          0.947              1.053              0.467
 Vibration    19          0.975              1.000              0.424

 Optimization completed.
    -- Stationary point found.
 Normal termination of Gaussian 16 at Tue Jul  2 23:02:45 2024.
