 Gaussian 16, Revision B.01,
 Gaussian 16:  ES64L-G16RevB.01 20-Dec-2017

 ----------------------------------------------------------------------
 #P PBE1PBE/def2TZVP opt freq EmpiricalDispersion=GD3 Int=(grid=99590)
 scrf=(iefpcm, solvent=water)
 ----------------------------------------------------------------------

 ------------------------------------
 pfp-betaC_ester methyalacetamid_prod
 ------------------------------------
 Symbolic Z-matrix:
 Charge =  0 Multiplicity = 1

 SCF Done:  E(RPBE1PBE) =  -287.605611479     A.U. after   11 cycles
 SCF Done:  E(RPBE1PBE) =  -287.621518656     A.U. after   11 cycles
 SCF Done:  E(RPBE1PBE) =  -287.625247625     A.U. after   10 cycles
 SCF Done:  E(RPBE1PBE) =  -287.624163106     A.U. after   10 cycles
 SCF Done:  E(RPBE1PBE) =  -287.628116484     A.U. after   10 cycles
 SCF Done:  E(RPBE1PBE) =  -287.628502391     A.U. after    9 cycles
 SCF Done:  E(RPBE1PBE) =  -287.628689562     A.U. after    9 cycles
 SCF Done:  E(RPBE1PBE) =  -287.628803717     A.U. after   10 cycles
 SCF Done:  E(RPBE1PBE) =  -287.628890562     A.U. after    9 cycles
 SCF Done:  E(RPBE1PBE) =  -287.628944471     A.U. after   10 cycles
 SCF Done:  E(RPBE1PBE) =  -287.628998914     A.U. after    9 cycles
 SCF Done:  E(RPBE1PBE) =  -287.629016245     A.U. after    9 cycles
 SCF Done:  E(RPBE1PBE) =  -287.629026362     A.U. after    8 cycles
 SCF Done:  E(RPBE1PBE) =  -287.629024358     A.U. after    9 cycles
 SCF Done:  E(RPBE1PBE) =  -287.629034942     A.U. after    8 cycles
 SCF Done:  E(RPBE1PBE) =  -287.629032937     A.U. after    7 cycles
 SCF Done:  E(RPBE1PBE) =  -287.629035283     A.U. after    9 cycles
 SCF Done:  E(RPBE1PBE) =  -287.629036345     A.U. after    8 cycles
 SCF Done:  E(RPBE1PBE) =  -287.629036765     A.U. after    7 cycles
 Optimization completed.
    -- Stationary point found.
 Normal termination of Gaussian 16 at Thu Aug 29 08:28:45 2024.

 ----------------------------------------------------------------------
 #P Geom=AllCheck Guess=TCheck SCRF=Check GenChk RPBE1PBE/def2TZVP Freq
 ----------------------------------------------------------------------

 Structure from the checkpoint file:  "/scratch/Gau-429851.chk"
 ------------------------------------
 pfp-betaC_ester methyalacetamid_prod
 ------------------------------------
 Charge =  0 Multiplicity = 1

                         Standard orientation:
 ---------------------------------------------------------------------
 Center     Atomic      Atomic             Coordinates (Angstroms)
 Number     Number       Type             X           Y           Z
 ---------------------------------------------------------------------
      1          6           0        0.034515    0.130603   -0.169246
      2          8           0        0.101039    1.356250   -0.186032
      3          7           0        1.119568   -0.635555    0.025845
      4          1           0        1.013895   -1.634714    0.035104
      5          6           0       -1.268628   -0.604725   -0.389227
      6          6           0        2.435172   -0.071173    0.202603
      7          1           0        2.462057    0.591620    1.070434
      8          1           0        3.147477   -0.880038    0.354011
      9          1           0        2.736275    0.506412   -0.674712
     10          1           0       -1.485393   -0.536285   -1.460835
     11          1           0       -1.155902   -1.666903   -0.158342
     12          6           0       -2.410986    0.002945    0.407713
     13          1           0       -3.353154   -0.492644    0.167541
     14          1           0       -2.238434   -0.099558    1.481751
     15          1           0       -2.512543    1.065094    0.181326
 ---------------------------------------------------------------------

 SCF Done:  E(RPBE1PBE) =  -287.629036765     A.U. after    1 cycles

 The electronic state is 1-A.
 Alpha  occ. eigenvalues --  -19.16966 -14.41028 -10.31797 -10.24858 -10.22751
 Alpha  occ. eigenvalues --  -10.21152  -1.06753  -0.95181  -0.80492  -0.73268
 Alpha  occ. eigenvalues --   -0.65289  -0.60225  -0.52255  -0.49444  -0.47950
 Alpha  occ. eigenvalues --   -0.45077  -0.43970  -0.40820  -0.40386  -0.37705
 Alpha  occ. eigenvalues --   -0.37347  -0.35250  -0.27450  -0.27426
 Alpha virt. eigenvalues --    0.02483   0.04571   0.07564   0.07674   0.09879
 Alpha virt. eigenvalues --    0.11851   0.12115   0.13533   0.14284   0.15084
 Alpha virt. eigenvalues --    0.16783   0.18416   0.19228   0.20445   0.21896

 Mulliken charges:
               1
     1  C    0.281802
     2  O   -0.483509
     3  N   -0.271698
     4  H    0.261296
     5  C   -0.182382
     6  C   -0.282010
     7  H    0.139799
     8  H    0.151631
     9  H    0.139418
    10  H    0.127260
    11  H    0.118441
    12  C   -0.388278
    13  H    0.136468
    14  H    0.125916
    15  H    0.125845
 Sum of Mulliken charges =  -0.00000

 Dipole moment (field-independent basis, Debye):
    X=              1.0529    Y=             -5.0572    Z=              0.2267  Tot=              5.1706
 Quadrupole moment (field-independent basis, Debye-Ang):
   XX=            -31.5350   YY=            -39.7582   ZZ=            -37.4815
   XY=             -1.4385   XZ=              1.0366   YZ=              0.5450

  Exact polarizability:  86.910  -3.024  76.165   1.955  -0.246  62.041
 Approx polarizability:  81.924  -4.457  86.383   2.370  -1.046  66.478

                      1                      2                      3
                      A                      A                      A
 Frequencies --     39.2041                68.3853               158.2205
 Red. masses --      2.5897                 1.0513                 2.6071
 Frc consts  --      0.0023                 0.0029                 0.0385
 IR Inten    --      4.8934                 2.9800                 2.6832

                      4                      5                      6
                      A                      A                      A
 Frequencies --    211.3201               247.3938               301.1714
 Red. masses --      1.3249                 2.0987                 3.7251
 Frc consts  --      0.0349                 0.0757                 0.1991
 IR Inten    --      1.5919                14.3463                25.1469

                      7                      8                      9
                      A                      A                      A
 Frequencies --    427.0218               455.5866               605.9254
 Red. masses --      2.3577                 1.3000                 2.8441
 Frc consts  --      0.2533                 0.1590                 0.6152
 IR Inten    --     26.0511                84.9382                 4.4813

                     10                     11                     12
                      A                      A                      A
 Frequencies --    721.7195               808.9311               880.9605
 Red. masses --      2.4962                 1.4363                 2.5150
 Frc consts  --      0.7661                 0.5537                 1.1500
 IR Inten    --      1.2971                 8.7039                13.4313

                     13                     14                     15
                      A                      A                      A
 Frequencies --   1006.3215              1068.2435              1099.9808
 Red. masses --      2.1900                 1.8060                 1.9921
 Frc consts  --      1.3067                 1.2142                 1.4201
 IR Inten    --      2.5422                23.3805                 2.4015

                     16                     17                     18
                      A                      A                      A
 Frequencies --   1123.7364              1147.8418              1189.7022
 Red. masses --      2.3832                 1.3007                 1.8776
 Frc consts  --      1.7731                 1.0097                 1.5658
 IR Inten    --      2.9236                 0.1429                 0.9351

                     19                     20                     21
                      A                      A                      A
 Frequencies --   1261.3958              1293.3269              1387.5524
 Red. masses --      1.4475                 1.3693                 1.4725
 Frc consts  --      1.3569                 1.3494                 1.6703
 IR Inten    --     54.2878                19.2754                12.9172

                     22                     23                     24
                      A                      A                      A
 Frequencies --   1393.6629              1442.7414              1453.7674
 Red. masses --      1.2920                 1.2082                 1.0789
 Frc consts  --      1.4785                 1.4818                 1.3434
 IR Inten    --      6.6741                24.9953                11.5683

                     25                     26                     27
                      A                      A                      A
 Frequencies --   1462.5186              1476.7083              1487.4077
 Red. masses --      1.0376                 1.0384                 1.0636
 Frc consts  --      1.3076                 1.3342                 1.3864
 IR Inten    --     15.1063                13.0617                 6.8134

                     28                     29                     30
                      A                      A                      A
 Frequencies --   1493.9289              1566.3003              1719.1214
 Red. masses --      1.0756                 2.3638                 8.2757
 Frc consts  --      1.4144                 3.4168                14.4101
 IR Inten    --     16.4489               391.6624               473.4300

                     31                     32                     33
                      A                      A                      A
 Frequencies --   3051.7519              3053.4340              3056.0884
 Red. masses --      1.0357                 1.0622                 1.0364
 Frc consts  --      5.6831                 5.8350                 5.7031
 IR Inten    --     52.1954                13.1154                37.8276

                     34                     35                     36
                      A                      A                      A
 Frequencies --   3099.6561              3111.2764              3130.0502
 Red. masses --      1.0997                 1.1041                 1.1024
 Frc consts  --      6.2250                 6.2970                 6.3637
 IR Inten    --     15.6858                33.2539                40.9926

                     37                     38                     39
                      A                      A                      A
 Frequencies --   3144.2413              3164.2206              3672.7268
 Red. masses --      1.1023                 1.1019                 1.0788
 Frc consts  --      6.4210                 6.5004                 8.5735
 IR Inten    --     32.6587                15.5798                74.3317

 - Thermochemistry -
 -------------------
 Temperature   298.150 Kelvin.  Pressure   1.00000 Atm.
 Atom     1 has atomic number  6 and mass  12.00000

 Molecular mass:    87.06841 amu.
 Principal axes and moments of inertia in atomic units:
                           1         2         3
     Eigenvalues --   212.77948 858.11314 989.68238
           X            1.00000   0.00215  -0.00022
           Y           -0.00214   0.99971   0.02414
           Z            0.00027  -0.02414   0.99971
 This molecule is an asymmetric top.
 Rotational symmetry number  1.
 Rotational temperatures (Kelvin)      0.40706     0.10094     0.08752
 Rotational constants (GHZ):           8.48174     2.10315     1.82356
 Zero-point vibrational energy     343827.9 (Joules/Mol)
                                   82.17685 (Kcal/Mol)
 Warning -- explicit consideration of   9 degrees of freedom as
           vibrations may cause significant error
 Vibrational temperatures:     56.41    98.39   227.64   304.04   355.94
          (Kelvin)            433.32   614.39   655.49   871.79  1038.39
                             1163.87  1267.51  1447.87  1536.96  1582.63
                             1616.81  1651.49  1711.72  1814.87  1860.81
                             1996.38  2005.17  2075.78  2091.65  2104.24
                             2124.65  2140.05  2149.43  2253.56  2473.43
                             4390.79  4393.21  4397.03  4459.71  4476.43
                             4503.44  4523.86  4552.61  5284.23

 Zero-point correction=                           0.130957 (Hartree/Particle)
 Thermal correction to Energy=                    0.138693
 Thermal correction to Enthalpy=                  0.139637
 Thermal correction to Gibbs Free Energy=         0.098516
 Sum of electronic and zero-point Energies=           -287.498080
 Sum of electronic and thermal Energies=              -287.490344
 Sum of electronic and thermal Enthalpies=            -287.489400
 Sum of electronic and thermal Free Energies=         -287.530521

                     E (Thermal)             CV                S
                      KCal/Mol        Cal/Mol-Kelvin    Cal/Mol-Kelvin
 Total                   87.031             25.603             86.546
 Electronic               0.000              0.000              0.000
 Translational            0.889              2.981             39.305
 Rotational               0.889              2.981             26.694
 Vibrational             85.254             19.642             20.547
 Vibration     1          0.594              1.981              5.299
 Vibration     2          0.598              1.969              4.199
 Vibration     3          0.621              1.893              2.571
 Vibration     4          0.643              1.824              2.032
 Vibration     5          0.661              1.767              1.749
 Vibration     6          0.693              1.671              1.410
 Vibration     7          0.789              1.411              0.868
 Vibration     8          0.814              1.349              0.779
 Vibration     9          0.965              1.019              0.440

                           ! Non-Optimized Parameters !
 Normal termination of Gaussian 16 at Thu Aug 29 08:30:23 2024.
