 Gaussian 16, Revision B.01,
 Gaussian 16:  ES64L-G16RevB.01 20-Dec-2017

 ----------------------------------------------------------------------
 #P PBE1PBE/def2TZVP opt freq EmpiricalDispersion=GD3 Int=(grid=99590)
 scrf=(iefpcm, solvent=water)
 ----------------------------------------------------------------------

 ---------------------------
 cf3-methylacetamide product
 ---------------------------
 Symbolic Z-matrix:
 Charge =  0 Multiplicity = 1

 SCF Done:  E(RPBE1PBE) =  -545.908286861     A.U. after   12 cycles
 SCF Done:  E(RPBE1PBE) =  -545.928040689     A.U. after   11 cycles
 SCF Done:  E(RPBE1PBE) =  -545.932786754     A.U. after   10 cycles
 SCF Done:  E(RPBE1PBE) =  -545.933435642     A.U. after   11 cycles
 SCF Done:  E(RPBE1PBE) =  -545.936371818     A.U. after   10 cycles
 SCF Done:  E(RPBE1PBE) =  -545.937077006     A.U. after   10 cycles
 SCF Done:  E(RPBE1PBE) =  -545.937331696     A.U. after   10 cycles
 SCF Done:  E(RPBE1PBE) =  -545.937454252     A.U. after   10 cycles
 SCF Done:  E(RPBE1PBE) =  -545.937514395     A.U. after    9 cycles
 SCF Done:  E(RPBE1PBE) =  -545.937537637     A.U. after    9 cycles
 SCF Done:  E(RPBE1PBE) =  -545.937540904     A.U. after    8 cycles
 SCF Done:  E(RPBE1PBE) =  -545.937541462     A.U. after    7 cycles
 SCF Done:  E(RPBE1PBE) =  -545.937541504     A.U. after    6 cycles
 Optimization completed.
    -- Stationary point found.
 Normal termination of Gaussian 16 at Wed Aug 28 20:56:40 2024.

 ----------------------------------------------------------------------
 #P Geom=AllCheck Guess=TCheck SCRF=Check GenChk RPBE1PBE/def2TZVP Freq
 ----------------------------------------------------------------------

 Structure from the checkpoint file:  "/scratch/Gau-1844818.chk"
 ---------------------------
 cf3-methylacetamide product
 ---------------------------
 Charge =  0 Multiplicity = 1

                         Standard orientation:
 ---------------------------------------------------------------------
 Center     Atomic      Atomic             Coordinates (Angstroms)
 Number     Number       Type             X           Y           Z
 ---------------------------------------------------------------------
      1          6           0        0.469598    0.385264    0.003884
      2          8           0        0.668590    1.585470    0.002342
      3          7           0        1.389140   -0.573220   -0.004076
      4          1           0        1.091968   -1.534514    0.032137
      5          6           0       -0.995388   -0.105924    0.000360
      6          6           0        2.803843   -0.277540    0.000249
      7          1           0        3.178816   -0.158301    1.019524
      8          1           0        3.338653   -1.092342   -0.483861
      9          1           0        2.978726    0.646953   -0.547908
     10          9           0       -1.620082    0.336967   -1.091079
     11          9           0       -1.638914    0.375014    1.063842
     12          9           0       -1.110913   -1.439071    0.023120
 ---------------------------------------------------------------------

 SCF Done:  E(RPBE1PBE) =  -545.937541504     A.U. after    1 cycles

 The electronic state is 1-A.
 Alpha  occ. eigenvalues --  -24.82297 -24.81869 -24.81864 -19.19953 -14.43814
 Alpha  occ. eigenvalues --  -10.48558 -10.35221 -10.25987  -1.37066  -1.28034
 Alpha  occ. eigenvalues --   -1.27778  -1.09928  -0.98248  -0.79211  -0.73456
 Alpha  occ. eigenvalues --   -0.65543  -0.63573  -0.63332  -0.62281  -0.51708
 Alpha  occ. eigenvalues --   -0.51010  -0.50246  -0.49179  -0.49008  -0.46815
 Alpha  occ. eigenvalues --   -0.46573  -0.44691  -0.43141  -0.41878  -0.41314
 Alpha  occ. eigenvalues --   -0.30653  -0.29642
 Alpha virt. eigenvalues --   -0.01104   0.05246   0.08043   0.10989   0.12488
 Alpha virt. eigenvalues --    0.13249   0.14091   0.15230   0.17962   0.18826
 Alpha virt. eigenvalues --    0.20095   0.23003   0.23265   0.24710   0.25205

 Mulliken charges:
               1
     1  C    0.213878
     2  O   -0.426588
     3  N   -0.231379
     4  H    0.276391
     5  C    0.458267
     6  C   -0.288739
     7  H    0.155184
     8  H    0.162214
     9  H    0.156078
    10  F   -0.154055
    11  F   -0.153755
    12  F   -0.167498
 Sum of Mulliken charges =  -0.00000

 Dipole moment (field-independent basis, Debye):
    X=              3.3993    Y=             -4.5477    Z=              0.0457  Tot=              5.6779
 Quadrupole moment (field-independent basis, Debye-Ang):
   XX=            -37.9544   YY=            -47.6662   ZZ=            -44.5316
   XY=             -4.5903   XZ=             -0.0508   YZ=             -0.1012

  Exact polarizability:  66.126  -5.851  64.675   0.643  -0.129  47.089
 Approx polarizability:  64.394  -6.819  77.487   0.565  -0.183  52.710

                      1                      2                      3
                      A                      A                      A
 Frequencies --     21.0471                35.3627               151.5442
 Red. masses --      1.0518                 9.4752                 3.7911
 Frc consts  --      0.0003                 0.0070                 0.0513
 IR Inten    --      0.4103                 7.3593                 0.5379

                      4                      5                      6
                      A                      A                      A
 Frequencies --    202.0281               292.5546               308.9709
 Red. masses --      4.8876                10.0588                 6.2023
 Frc consts  --      0.1175                 0.5072                 0.3488
 IR Inten    --      2.3214                16.1870                15.9950

                      7                      8                      9
                      A                      A                      A
 Frequencies --    369.4290               424.3189               511.5630
 Red. masses --      6.2820                13.8548                 4.0632
 Frc consts  --      0.5051                 1.4697                 0.6265
 IR Inten    --     13.2582                 5.0790                70.7374

                     10                     11                     12
                      A                      A                      A
 Frequencies --    551.0522               585.9226               733.3472
 Red. masses --      1.4344                14.4749                 9.8847
 Frc consts  --      0.2566                 2.9278                 3.1321
 IR Inten    --     71.7192                 0.7095                33.0982

                     13                     14                     15
                      A                      A                      A
 Frequencies --    787.9770               855.5478              1046.7546
 Red. masses --      9.2475                 4.1609                 4.3891
 Frc consts  --      3.3830                 1.7944                 2.8335
 IR Inten    --     10.6919                17.2415                64.4004

                     16                     17                     18
                      A                      A                      A
 Frequencies --   1141.4983              1169.8143              1173.9213
 Red. masses --      1.3408                 3.4369                 6.8129
 Frc consts  --      1.0294                 2.7711                 5.5317
 IR Inten    --     26.2144               211.6437               348.9372

                     19                     20                     21
                      A                      A                      A
 Frequencies --   1196.3805              1228.2102              1353.8888
 Red. masses --      3.1948                 4.0385                 2.2902
 Frc consts  --      2.6942                 3.5893                 2.4734
 IR Inten    --    245.2947               258.6713                61.4538

                     22                     23                     24
                      A                      A                      A
 Frequencies --   1442.7827              1468.1356              1487.9237
 Red. masses --      1.1735                 1.0521                 1.0647
 Frc consts  --      1.4392                 1.3361                 1.3888
 IR Inten    --     24.3169                18.1742                 6.4037

                     25                     26                     27
                      A                      A                      A
 Frequencies --   1600.8923              1780.4471              3064.0260
 Red. masses --      2.4539                10.7774                 1.0385
 Frc consts  --      3.7053                20.1291                 5.7444
 IR Inten    --    145.6326               613.1813                31.6001

                     28                     29                     30
                      A                      A                      A
 Frequencies --   3142.1602              3178.4640              3651.5771
 Red. masses --      1.0981                 1.1055                 1.0784
 Frc consts  --      6.3876                 6.5804                 8.4725
 IR Inten    --     14.4964                 5.8113               131.3616

 - Thermochemistry -
 -------------------
 Temperature   298.150 Kelvin.  Pressure   1.00000 Atm.
 Atom     1 has atomic number  6 and mass  12.00000

 Molecular mass:   127.02450 amu.
 Principal axes and moments of inertia in atomic units:
                           1         2         3
     Eigenvalues --   505.113731224.960311403.56391
           X            0.99976  -0.02213   0.00014
           Y            0.02213   0.99975  -0.00070
           Z           -0.00013   0.00071   1.00000
 This molecule is an asymmetric top.
 Rotational symmetry number  1.
 Warning -- assumption of classical behavior for rotation
           may cause significant error
 Rotational temperatures (Kelvin)      0.17147     0.07071     0.06171
 Rotational constants (GHZ):           3.57294     1.47331     1.28583
 Zero-point vibrational energy     209092.5 (Joules/Mol)
                                   49.97431 (Kcal/Mol)
 Warning -- explicit consideration of  11 degrees of freedom as
           vibrations may cause significant error
 Vibrational temperatures:     30.28    50.88   218.04   290.67   420.92
          (Kelvin)            444.54   531.53   610.50   736.03   792.84
                              843.01  1055.12  1133.72  1230.94  1506.05
                             1642.36  1683.10  1689.01  1721.32  1767.12
                             1947.94  2075.84  2112.32  2140.79  2303.33
                             2561.67  4408.45  4520.87  4573.10  5253.80

 Zero-point correction=                           0.079639 (Hartree/Particle)
 Thermal correction to Energy=                    0.087869
 Thermal correction to Enthalpy=                  0.088813
 Thermal correction to Gibbs Free Energy=         0.044650
 Sum of electronic and zero-point Energies=           -545.857902
 Sum of electronic and thermal Energies=              -545.849673
 Sum of electronic and thermal Enthalpies=            -545.848729
 Sum of electronic and thermal Free Energies=         -545.892892

                     E (Thermal)             CV                S
                      KCal/Mol        Cal/Mol-Kelvin    Cal/Mol-Kelvin
 Total                   55.138             27.263             92.949
 Electronic               0.000              0.000              0.000
 Translational            0.889              2.981             40.431
 Rotational               0.889              2.981             28.253
 Vibrational             53.361             21.302             24.265
 Vibration     1          0.593              1.985              6.533
 Vibration     2          0.594              1.982              5.503
 Vibration     3          0.619              1.901              2.653
 Vibration     4          0.639              1.837              2.115
 Vibration     5          0.688              1.688              1.459
 Vibration     6          0.698              1.657              1.368
 Vibration     7          0.742              1.535              1.082
 Vibration     8          0.786              1.417              0.877
 Vibration     9          0.867              1.224              0.630
 Vibration    10          0.906              1.137              0.542
 Vibration    11          0.943              1.062              0.475

                           ! Non-Optimized Parameters !
 Normal termination of Gaussian 16 at Wed Aug 28 20:58:29 2024.
