 Gaussian 16, Revision B.01,
 Gaussian 16:  ES64L-G16RevB.01 20-Dec-2017

 ----------------------------------------------------------------------
 #P PBE1PBE/def2TZVP opt freq EmpiricalDispersion=GD3 Int=(grid=99590)
 scrf=(iefpcm, solvent=water)
 ----------------------------------------------------------------------

 -----------------------
 pfp_ester-ch2F reactant
 -----------------------
 Symbolic Z-matrix:
 Charge =  0 Multiplicity = 1

 SCF Done:  E(RPBE1PBE) =  -1054.85619779     A.U. after   12 cycles
 SCF Done:  E(RPBE1PBE) =  -1054.87854604     A.U. after   11 cycles
 SCF Done:  E(RPBE1PBE) =  -1054.88037578     A.U. after   10 cycles
 SCF Done:  E(RPBE1PBE) =  -1054.88059301     A.U. after   10 cycles
 SCF Done:  E(RPBE1PBE) =  -1054.87976498     A.U. after   10 cycles
 SCF Done:  E(RPBE1PBE) =  -1054.88118922     A.U. after   10 cycles
 SCF Done:  E(RPBE1PBE) =  -1054.88191172     A.U. after   11 cycles
 SCF Done:  E(RPBE1PBE) =  -1054.88306301     A.U. after   10 cycles
 SCF Done:  E(RPBE1PBE) =  -1054.88427942     A.U. after   10 cycles
 SCF Done:  E(RPBE1PBE) =  -1054.88531966     A.U. after   12 cycles
 SCF Done:  E(RPBE1PBE) =  -1054.88553200     A.U. after   10 cycles
 SCF Done:  E(RPBE1PBE) =  -1054.88290058     A.U. after   13 cycles
 SCF Done:  E(RPBE1PBE) =  -1054.88523484     A.U. after   10 cycles
 SCF Done:  E(RPBE1PBE) =  -1054.88557643     A.U. after    7 cycles
 SCF Done:  E(RPBE1PBE) =  -1054.88544299     A.U. after   10 cycles
 SCF Done:  E(RPBE1PBE) =  -1054.88558454     A.U. after    9 cycles
 SCF Done:  E(RPBE1PBE) =  -1054.88559907     A.U. after    9 cycles
 SCF Done:  E(RPBE1PBE) =  -1054.88559978     A.U. after    6 cycles
 SCF Done:  E(RPBE1PBE) =  -1054.88559975     A.U. after    6 cycles
 Optimization completed.
    -- Stationary point found.
 Normal termination of Gaussian 16 at Thu Aug 29 16:01:53 2024.

 ----------------------------------------------------------------------
 #P Geom=AllCheck Guess=TCheck SCRF=Check GenChk RPBE1PBE/def2TZVP Freq
 ----------------------------------------------------------------------

 Structure from the checkpoint file:  "/scratch/Gau-118780.chk"
 -----------------------
 pfp_ester-ch2F reactant
 -----------------------
 Charge =  0 Multiplicity = 1

                         Standard orientation:
 ---------------------------------------------------------------------
 Center     Atomic      Atomic             Coordinates (Angstroms)
 Number     Number       Type             X           Y           Z
 ---------------------------------------------------------------------
      1          8           0        2.030036    0.563621    1.648079
      2          6           0        2.433207    0.173913    0.594140
      3          6           0        3.897171    0.053138    0.265081
      4          8           0        1.639836   -0.204639   -0.436732
      5          6           0        0.285894   -0.105536   -0.245879
      6          6           0       -0.348598    1.126592   -0.249631
      7          6           0       -0.470943   -1.257807   -0.110801
      8          6           0       -1.723652    1.209849   -0.120914
      9          6           0       -1.848063   -1.183260    0.013082
     10          6           0       -2.473388    0.052175    0.009085
     11          9           0        0.365136    2.233967   -0.380585
     12          9           0        0.121786   -2.441233   -0.099653
     13          9           0       -2.323868    2.390123   -0.124625
     14          9           0       -2.566462   -2.288533    0.138136
     15          9           0       -3.788533    0.127445    0.128488
     16          9           0        4.129478   -0.435538   -0.992799
     17          1           0        4.341542    1.047762    0.358295
     18          1           0        4.351882   -0.610081    1.005290
 ---------------------------------------------------------------------

 SCF Done:  E(RPBE1PBE) =  -1054.88559975     A.U. after    1 cycles

 The electronic state is 1-A.
 Alpha  occ. eigenvalues --  -24.82420 -24.82377 -24.82271 -24.82247 -24.82238
 Alpha  occ. eigenvalues --  -24.78137 -19.30332 -19.22945 -10.38803 -10.35337
 Alpha  occ. eigenvalues --  -10.35236 -10.35235 -10.35029 -10.35014 -10.33237
 Alpha  occ. eigenvalues --  -10.32614  -1.31789  -1.31211  -1.30681  -1.29844
 Alpha  occ. eigenvalues --   -1.29396  -1.25816  -1.18830  -1.09849  -0.94344
 Alpha  occ. eigenvalues --   -0.83773  -0.82116  -0.78737  -0.72209  -0.70782
 Alpha  occ. eigenvalues --   -0.66548  -0.63964  -0.63363  -0.60478  -0.58581
 Alpha  occ. eigenvalues --   -0.57905  -0.57729  -0.57044  -0.56107  -0.54913
 Alpha  occ. eigenvalues --   -0.54345  -0.53584  -0.52345  -0.51882  -0.50753
 Alpha  occ. eigenvalues --   -0.50159  -0.48398  -0.48147  -0.47414  -0.46814
 Alpha  occ. eigenvalues --   -0.45159  -0.43818  -0.41992  -0.41479  -0.39106
 Alpha  occ. eigenvalues --   -0.38279  -0.36624  -0.33123  -0.28657  -0.28210
 Alpha virt. eigenvalues --   -0.03438  -0.02369  -0.02022  -0.01603   0.05206
 Alpha virt. eigenvalues --    0.07147   0.08110   0.09203   0.12283   0.12926
 Alpha virt. eigenvalues --    0.14871   0.15729   0.17167   0.17737   0.18149

 Mulliken charges:
               1
     1  O   -0.336260
     2  C    0.322589
     3  C   -0.002913
     4  O   -0.219236
     5  C    0.136338
     6  C    0.191898
     7  C    0.138409
     8  C    0.169994
     9  C    0.168643
    10  C    0.156976
    11  F   -0.165982
    12  F   -0.162721
    13  F   -0.165400
    14  F   -0.165697
    15  F   -0.161957
    16  F   -0.224793
    17  H    0.159822
    18  H    0.160287
 Sum of Mulliken charges =  -0.00000

 Dipole moment (field-independent basis, Debye):
    X=              1.7625    Y=              0.0127    Z=             -0.0949  Tot=              1.7651
 Quadrupole moment (field-independent basis, Debye-Ang):
   XX=            -79.3446   YY=            -89.5865   ZZ=            -88.1699
   XY=              1.6959   XZ=              5.1643   YZ=             -2.5077

  Exact polarizability: 157.312   0.844 130.317  -0.755   1.349  85.333
 Approx polarizability: 171.224  -0.398 161.357  -6.335   2.623 102.794

                      1                      2                      3
                      A                      A                      A
 Frequencies --     31.0246                47.3732                63.4132
 Red. masses --      9.7593                13.3153                12.3625
 Frc consts  --      0.0055                 0.0176                 0.0293
 IR Inten    --      0.4292                 0.1738                 0.2091

                      4                      5                      6
                      A                      A                      A
 Frequencies --     85.8329               138.5932               145.2100
 Red. masses --      2.5130                18.3584                16.2641
 Frc consts  --      0.0109                 0.2078                 0.2021
 IR Inten    --     19.3353                 0.0163                 0.0651

                      7                      8                      9
                      A                      A                      A
 Frequencies --    170.5961               189.5960               242.8741
 Red. masses --     16.4400                17.2755                13.3327
 Frc consts  --      0.2819                 0.3659                 0.4634
 IR Inten    --      2.3049                 0.3090                 5.4907

                     10                     11                     12
                      A                      A                      A
 Frequencies --    274.6292               275.7187               292.8748
 Red. masses --     17.9654                18.4509                14.9313
 Frc consts  --      0.7983                 0.8264                 0.7546
 IR Inten    --      0.1094                 0.7642                 0.3295

                     13                     14                     15
                      A                      A                      A
 Frequencies --    322.4609               331.1357               385.2574
 Red. masses --     14.3690                15.9334                12.6653
 Frc consts  --      0.8803                 1.0294                 1.1076
 IR Inten    --      2.2427                12.5499                 0.0680

                     16                     17                     18
                      A                      A                      A
 Frequencies --    402.4620               445.9087               448.8487
 Red. masses --     12.7835                12.0426                15.4968
 Frc consts  --      1.2200                 1.4108                 1.8395
 IR Inten    --      0.4228                30.4558                 0.0972

                     19                     20                     21
                      A                      A                      A
 Frequencies --    504.2419               546.3749               582.2981
 Red. masses --     12.0579                 9.9241                 3.1488
 Frc consts  --      1.8063                 1.7455                 0.6290
 IR Inten    --      1.1316                32.9654                11.8671

                     22                     23                     24
                      A                      A                      A
 Frequencies --    595.1685               657.6720               675.7458
 Red. masses --     15.6981                12.0964                12.1657
 Frc consts  --      3.2762                 3.0827                 3.2731
 IR Inten    --      3.7673                 2.2918                 0.0727

                     25                     26                     27
                      A                      A                      A
 Frequencies --    725.7260               764.8434               801.4447
 Red. masses --     10.5994                 8.6269                12.1345
 Frc consts  --      3.2891                 2.9734                 4.5922
 IR Inten    --      2.2589                 9.9296                 1.5795

                     28                     29                     30
                      A                      A                      A
 Frequencies --    908.5151              1026.9886              1029.3490
 Red. masses --     11.4287                 8.1783                 2.4637
 Frc consts  --      5.5579                 5.0821                 1.5381
 IR Inten    --     36.7529               396.8838                51.3881

                     31                     32                     33
                      A                      A                      A
 Frequencies --   1032.7544              1112.2664              1179.6196
 Red. masses --     12.2923                 7.5815                13.3904
 Frc consts  --      7.7246                 5.5262                10.9781
 IR Inten    --    461.4106               175.7455                 9.2992

                     34                     35                     36
                      A                      A                      A
 Frequencies --   1186.5915              1261.4201              1276.6154
 Red. masses --     13.7369                 5.8499                 1.0758
 Frc consts  --     11.3957                 5.4843                 1.0330
 IR Inten    --      0.2556               708.1140                 3.9998

                     37                     38                     39
                      A                      A                      A
 Frequencies --   1339.1346              1344.9863              1397.9017
 Red. masses --     11.8746                12.3797                 1.3947
 Frc consts  --     12.5463                13.1946                 1.6058
 IR Inten    --      3.6759                 8.3407                39.7135

                     40                     41                     42
                      A                      A                      A
 Frequencies --   1454.6138              1522.4999              1564.7162
 Red. masses --      1.0796                12.6806                12.3349
 Frc consts  --      1.3459                17.3183                17.7933
 IR Inten    --      6.3255                21.9958               486.5976

                     43                     44                     45
                      A                      A                      A
 Frequencies --   1567.0166              1699.5944              1704.2377
 Red. masses --     12.3072                12.0370                12.0314
 Frc consts  --     17.8056                20.4861                20.5886
 IR Inten    --    586.7296                 0.9072                10.3535

                     46                     47                     48
                      A                      A                      A
 Frequencies --   1847.2337              3078.8592              3133.2046
 Red. masses --     12.7288                 1.0569                 1.1072
 Frc consts  --     25.5907                 5.9028                 6.4042
 IR Inten    --    343.3631                12.5716                 1.3994

 - Thermochemistry -
 -------------------
 Temperature   298.150 Kelvin.  Pressure   1.00000 Atm.
 Atom     1 has atomic number  8 and mass  15.99491

 Molecular mass:   243.99590 amu.
 Principal axes and moments of inertia in atomic units:
                           1         2         3
     Eigenvalues --  2047.592545210.707436708.07727
           X            0.99996   0.00379   0.00830
           Y           -0.00380   0.99999   0.00138
           Z           -0.00830  -0.00141   0.99996
 This molecule is an asymmetric top.
 Rotational symmetry number  1.
 Warning -- assumption of classical behavior for rotation
           may cause significant error
 Rotational temperatures (Kelvin)      0.04230     0.01662     0.01291
 Rotational constants (GHZ):           0.88140     0.34635     0.26904
 Zero-point vibrational energy     250111.9 (Joules/Mol)
                                   59.77818 (Kcal/Mol)
 Warning -- explicit consideration of  22 degrees of freedom as
           vibrations may cause significant error
 Vibrational temperatures:     44.64    68.16    91.24   123.49   199.40
          (Kelvin)            208.92   245.45   272.79   349.44   395.13
                              396.70   421.38   463.95   476.43   554.30
                              579.05   641.56   645.79   725.49   786.11
                              837.80   856.31   946.24   972.25  1044.16
                             1100.44  1153.10  1307.15  1477.61  1481.00
                             1485.90  1600.30  1697.21  1707.24  1814.90
                             1836.76  1926.72  1935.14  2011.27  2092.86
                             2190.54  2251.28  2254.59  2445.34  2452.02
                             2657.76  4429.79  4507.98

 Zero-point correction=                           0.095263 (Hartree/Particle)
 Thermal correction to Energy=                    0.109204
 Thermal correction to Enthalpy=                  0.110148
 Thermal correction to Gibbs Free Energy=         0.052758
 Sum of electronic and zero-point Energies=          -1054.790337
 Sum of electronic and thermal Energies=             -1054.776396
 Sum of electronic and thermal Enthalpies=           -1054.775452
 Sum of electronic and thermal Free Energies=        -1054.832842

                     E (Thermal)             CV                S
                      KCal/Mol        Cal/Mol-Kelvin    Cal/Mol-Kelvin
 Total                   68.526             48.972            120.787
 Electronic               0.000              0.000              0.000
 Translational            0.889              2.981             42.377
 Rotational               0.889              2.981             32.637
 Vibrational             66.749             43.010             45.773
 Vibration     1          0.594              1.983              5.763
 Vibration     2          0.595              1.979              4.924
 Vibration     3          0.597              1.972              4.348
 Vibration     4          0.601              1.959              3.753
 Vibration     5          0.614              1.915              2.823
 Vibration     6          0.617              1.908              2.734
 Vibration     7          0.626              1.879              2.429
 Vibration     8          0.633              1.854              2.232
 Vibration     9          0.659              1.775              1.782
 Vibration    10          0.677              1.720              1.567
 Vibration    11          0.677              1.718              1.560
 Vibration    12          0.688              1.687              1.457
 Vibration    13          0.707              1.630              1.298
 Vibration    14          0.714              1.613              1.255
 Vibration    15          0.754              1.502              1.018
 Vibration    16          0.768              1.465              0.954
 Vibration    17          0.805              1.370              0.808
 Vibration    18          0.808              1.363              0.799
 Vibration    19          0.860              1.241              0.648
 Vibration    20          0.902              1.148              0.552
 Vibration    21          0.939              1.070              0.481
 Vibration    22          0.953              1.042              0.458

                           ! Non-Optimized Parameters !
 Normal termination of Gaussian 16 at Thu Aug 29 16:13:09 2024.
