 Gaussian 16, Revision B.01,
 Gaussian 16:  ES64L-G16RevB.01 20-Dec-2017

 ----------------------------------------------------------------------
 #P PBE1PBE/def2TZVP opt freq EmpiricalDispersion=GD3 Int=(grid=99590)
 scrf=(iefpcm, solvent=water)
 ----------------------------------------------------------------------

 -------------------
 pfp-ome_ester inter
 -------------------
 Symbolic Z-matrix:
 Charge =  0 Multiplicity = 1

 SCF Done:  E(RPBE1PBE) =  -1165.91245925     A.U. after   12 cycles
 SCF Done:  E(RPBE1PBE) =  -1165.91429584     A.U. after   12 cycles
 SCF Done:  E(RPBE1PBE) =  -1165.91478618     A.U. after   11 cycles
 SCF Done:  E(RPBE1PBE) =  -1165.91698213     A.U. after   11 cycles
 SCF Done:  E(RPBE1PBE) =  -1165.91765387     A.U. after   10 cycles
 SCF Done:  E(RPBE1PBE) =  -1165.91783027     A.U. after    9 cycles
 SCF Done:  E(RPBE1PBE) =  -1165.91791248     A.U. after    9 cycles
 SCF Done:  E(RPBE1PBE) =  -1165.91794772     A.U. after    9 cycles
 SCF Done:  E(RPBE1PBE) =  -1165.91796959     A.U. after    9 cycles
 SCF Done:  E(RPBE1PBE) =  -1165.91800554     A.U. after    9 cycles
 SCF Done:  E(RPBE1PBE) =  -1165.91862487     A.U. after   10 cycles
 SCF Done:  E(RPBE1PBE) =  -1165.91882370     A.U. after    9 cycles
 SCF Done:  E(RPBE1PBE) =  -1165.91860897     A.U. after   10 cycles
 SCF Done:  E(RPBE1PBE) =  -1165.91885264     A.U. after   10 cycles
 SCF Done:  E(RPBE1PBE) =  -1165.91886363     A.U. after    9 cycles
 SCF Done:  E(RPBE1PBE) =  -1165.91886786     A.U. after    8 cycles
 SCF Done:  E(RPBE1PBE) =  -1165.91886945     A.U. after    7 cycles
 SCF Done:  E(RPBE1PBE) =  -1165.91886966     A.U. after    7 cycles
 SCF Done:  E(RPBE1PBE) =  -1165.91886967     A.U. after    6 cycles
 Optimization completed.
    -- Stationary point found.
 Normal termination of Gaussian 16 at Thu Aug 29 01:08:41 2024.

 ----------------------------------------------------------------------
 #P Geom=AllCheck Guess=TCheck SCRF=Check GenChk RPBE1PBE/def2TZVP Freq
 ----------------------------------------------------------------------

 Structure from the checkpoint file:  "/scratch/Gau-370872.chk"
 -------------------
 pfp-ome_ester inter
 -------------------
 Charge =  0 Multiplicity = 1

                         Standard orientation:
 ---------------------------------------------------------------------
 Center     Atomic      Atomic             Coordinates (Angstroms)
 Number     Number       Type             X           Y           Z
 ---------------------------------------------------------------------
      1          1           0        1.603388   -2.309890   -0.802595
      2          8           0        1.470174   -0.700520    1.260086
      3          6           0        1.925336   -0.429121    0.145702
      4          7           0        2.465631   -1.796617   -0.634826
      5          1           0        2.853964   -1.565611   -1.546537
      6          6           0        3.391185   -2.604665    0.168120
      7          1           0        4.362979   -2.118146    0.207352
      8          1           0        2.974960   -2.683033    1.170689
      9          1           0        3.499039   -3.595158   -0.270733
     10          6           0        3.067467    0.569974   -0.025286
     11          1           0        3.964164    0.153745    0.456429
     12          1           0        3.287453    0.723898   -1.091197
     13          8           0        0.910518   -0.019646   -0.923676
     14          6           0       -0.368615    0.000390   -0.532638
     15          6           0       -1.085801   -1.155321   -0.236337
     16          6           0       -1.056543    1.209266   -0.448416
     17          6           0       -2.418374   -1.116813    0.131513
     18          6           0       -2.393011    1.263077   -0.093504
     19          6           0       -3.077329    0.097696    0.204658
     20          9           0       -0.493103   -2.346728   -0.336786
     21          9           0       -0.426470    2.345534   -0.724155
     22          9           0       -3.070397   -2.241317    0.405395
     23          9           0       -3.021382    2.431911   -0.030181
     24          9           0       -4.357715    0.143879    0.551602
     25          8           0        2.692592    1.768523    0.586134
     26          6           0        3.693713    2.751720    0.480993
     27          1           0        3.910675    2.992475   -0.567945
     28          1           0        3.326045    3.646908    0.982496
     29          1           0        4.625076    2.427536    0.963757
 ---------------------------------------------------------------------

 SCF Done:  E(RPBE1PBE) =  -1165.91886967     A.U. after    1 cycles

 The electronic state is 1-A.
 Alpha  occ. eigenvalues --  -24.81575 -24.81572 -24.81460 -24.81399 -24.80807
 Alpha  occ. eigenvalues --  -19.23513 -19.22012 -19.15286 -14.46958 -10.36256
 Alpha  occ. eigenvalues --  -10.34014 -10.33891 -10.33823 -10.33490 -10.33350
 Alpha  occ. eigenvalues --  -10.31051 -10.27299 -10.26498 -10.26102  -1.30770
 Alpha  occ. eigenvalues --   -1.30128  -1.29459  -1.28692  -1.28304  -1.11543
 Alpha  occ. eigenvalues --   -1.07795  -1.03511  -0.98771  -0.92491  -0.80739
 Alpha  occ. eigenvalues --   -0.80729  -0.77254  -0.73530  -0.69897  -0.69369
 Alpha  occ. eigenvalues --   -0.67877  -0.63237  -0.62460  -0.61728  -0.59528
 Alpha  occ. eigenvalues --   -0.58255  -0.57355  -0.56757  -0.56016  -0.55175
 Alpha  occ. eigenvalues --   -0.54978  -0.52655  -0.52117  -0.51706  -0.50131
 Alpha  occ. eigenvalues --   -0.49771  -0.49408  -0.49236  -0.48264  -0.47687
 Alpha  occ. eigenvalues --   -0.47292  -0.46843  -0.44609  -0.44248  -0.43364
 Alpha  occ. eigenvalues --   -0.42138  -0.41691  -0.41176  -0.40460  -0.40117
 Alpha  occ. eigenvalues --   -0.36884  -0.34963  -0.33079  -0.29427  -0.28117
 Alpha  occ. eigenvalues --   -0.27387  -0.27050  -0.25680
 Alpha virt. eigenvalues --   -0.01727  -0.01107  -0.00919   0.03639   0.05355
 Alpha virt. eigenvalues --    0.07462   0.07943   0.08427   0.08889   0.10001
 Alpha virt. eigenvalues --    0.11282   0.11839   0.12513   0.12826   0.13114

 Mulliken charges:
               1
     1  H    0.273333
     2  O   -0.506141
     3  C    0.293814
     4  N   -0.151791
     5  H    0.286215
     6  C   -0.330783
     7  H    0.168307
     8  H    0.165426
     9  H    0.172098
    10  C   -0.131783
    11  H    0.113543
    12  H    0.110999
    13  O   -0.339057
    14  C    0.109399
    15  C    0.232987
    16  C    0.136347
    17  C    0.133551
    18  C    0.139526
    19  C    0.163273
    20  F   -0.200464
    21  F   -0.176463
    22  F   -0.174815
    23  F   -0.175539
    24  F   -0.173905
    25  O   -0.283379
    26  C   -0.243115
    27  H    0.122643
    28  H    0.143475
    29  H    0.122300
 Sum of Mulliken charges =  -0.00000

 Dipole moment (field-independent basis, Debye):
    X=              8.2136    Y=             -4.6047    Z=             -5.0603  Tot=             10.6899
 Quadrupole moment (field-independent basis, Debye-Ang):
   XX=            -83.7733   YY=            -97.7729   ZZ=           -108.1885
   XY=            -10.5063   XZ=             -7.8691   YZ=              6.5997

  Exact polarizability: 214.454  -6.610 195.025 -12.804  -2.076 132.997
 Approx polarizability: 226.149  -5.229 218.513 -20.910  -4.574 154.608

                      1                      2                      3
                      A                      A                      A
 Frequencies --     29.3796                38.7992                51.7079
 Red. masses --      5.7901                 5.3594                 4.8261
 Frc consts  --      0.0029                 0.0048                 0.0076
 IR Inten    --      3.1186                 1.6694                 5.4724

                      4                      5                      6
                      A                      A                      A
 Frequencies --     63.0487                93.8068                99.2581
 Red. masses --      2.5640                 3.3300                 2.7996
 Frc consts  --      0.0060                 0.0173                 0.0163
 IR Inten    --      5.4362                 2.0752                 1.5096

                      7                      8                      9
                      A                      A                      A
 Frequencies --    139.2859               145.1433               160.7970
 Red. masses --     10.1368                 5.1589                 3.2126
 Frc consts  --      0.1159                 0.0640                 0.0489
 IR Inten    --      0.4349                 3.1185                 6.9460

                     10                     11                     12
                      A                      A                      A
 Frequencies --    173.1099               186.9933               193.8435
 Red. masses --      3.3963                 7.4943                 1.7557
 Frc consts  --      0.0600                 0.1544                 0.0389
 IR Inten    --     11.2457                 4.9618                13.1347

                     13                     14                     15
                      A                      A                      A
 Frequencies --    229.4561               234.0546               259.7850
 Red. masses --      2.0090                 3.2228                 5.1601
 Frc consts  --      0.0623                 0.1040                 0.2052
 IR Inten    --      3.6506                 0.3779                10.4076

                     16                     17                     18
                      A                      A                      A
 Frequencies --    270.9298               277.7444               284.2224
 Red. masses --      4.8463                13.2473                 6.5673
 Frc consts  --      0.2096                 0.6021                 0.3126
 IR Inten    --      4.5260                 2.8307                11.9965

                     19                     20                     21
                      A                      A                      A
 Frequencies --    299.7924               313.7138               344.8758
 Red. masses --      7.1067                14.7201                 4.1488
 Frc consts  --      0.3763                 0.8535                 0.2907
 IR Inten    --    122.0835                 8.6800                 8.3448

                     22                     23                     24
                      A                      A                      A
 Frequencies --    350.2966               382.4823               387.7292
 Red. masses --      7.4348                12.1791                 8.1045
 Frc consts  --      0.5375                 1.0498                 0.7178
 IR Inten    --      4.5353                 4.1568                23.7158

                     25                     26                     27
                      A                      A                      A
 Frequencies --    391.3370               413.1570               452.3638
 Red. masses --      3.7212                 6.4385                14.2883
 Frc consts  --      0.3358                 0.6475                 1.7227
 IR Inten    --     22.1689                80.8948                 1.5304

                     28                     29                     30
                      A                      A                      A
 Frequencies --    485.8268               572.1827               582.7877
 Red. masses --     10.8138                 6.6614                12.2898
 Frc consts  --      1.5038                 1.2849                 2.4593
 IR Inten    --     20.1545                93.9584                 6.1946

                     31                     32                     33
                      A                      A                      A
 Frequencies --    615.1410               668.6724               680.6695
 Red. masses --      6.0006                12.0700                 6.2463
 Frc consts  --      1.3378                 3.1797                 1.7051
 IR Inten    --     38.2487                 0.9784               180.7671

                     34                     35                     36
                      A                      A                      A
 Frequencies --    710.6992               712.7987               771.6269
 Red. masses --      3.8527                 4.7920                 8.5579
 Frc consts  --      1.1465                 1.4345                 3.0021
 IR Inten    --    151.3218               101.7982                 6.9337

                     37                     38                     39
                      A                      A                      A
 Frequencies --    806.7409               829.0045               970.7140
 Red. masses --      9.5573                 2.3641                 1.9925
 Frc consts  --      3.6648                 0.9572                 1.1062
 IR Inten    --      6.6347               130.9097                73.1053

                     40                     41                     42
                      A                      A                      A
 Frequencies --   1014.4961              1019.7371              1032.9891
 Red. masses --     11.3282                 3.5052                 5.4964
 Frc consts  --      6.8693                 2.1475                 3.4556
 IR Inten    --    478.6333               247.3553               489.1087

                     43                     44                     45
                      A                      A                      A
 Frequencies --   1046.4247              1058.7613              1098.4174
 Red. masses --      2.2766                 2.2774                 1.7306
 Frc consts  --      1.4688                 1.5042                 1.2302
 IR Inten    --      1.3051                30.2292               112.7838

                     46                     47                     48
                      A                      A                      A
 Frequencies --   1146.5247              1167.1773              1177.4813
 Red. masses --      1.9244                13.1138                 2.4499
 Frc consts  --      1.4904                10.5257                 2.0013
 IR Inten    --    128.7517                 2.0471               113.1977

                     49                     50                     51
                      A                      A                      A
 Frequencies --   1178.2330              1199.7880              1234.6023
 Red. masses --      1.4476                 6.2157                 2.2620
 Frc consts  --      1.1840                 5.2717                 2.0314
 IR Inten    --     12.7695                 1.5851                66.6443

                     52                     53                     54
                      A                      A                      A
 Frequencies --   1285.0497              1313.9163              1331.4479
 Red. masses --      1.1364                 1.3163                10.7691
 Frc consts  --      1.1057                 1.3389                11.2481
 IR Inten    --     10.1147               131.8507                 4.6691

                     55                     56                     57
                      A                      A                      A
 Frequencies --   1340.5584              1348.5213              1422.0280
 Red. masses --      6.9217                 1.3453                 1.3734
 Frc consts  --      7.3289                 1.4414                 1.6363
 IR Inten    --      9.4158                44.3359                17.9937

                     58                     59                     60
                      A                      A                      A
 Frequencies --   1440.3537              1466.5224              1472.2021
 Red. masses --      1.1844                 1.1395                 1.0419
 Frc consts  --      1.4477                 1.4440                 1.3305
 IR Inten    --     12.6989                 6.2302                12.8877

                     61                     62                     63
                      A                      A                      A
 Frequencies --   1484.0121              1487.5850              1490.5205
 Red. masses --      1.0608                 1.0394                 1.0509
 Frc consts  --      1.3764                 1.3552                 1.3756
 IR Inten    --     25.4512                19.1911                18.8276

                     64                     65                     66
                      A                      A                      A
 Frequencies --   1503.2724              1516.1616              1551.5711
 Red. masses --      1.1087                10.5313                11.9986
 Frc consts  --      1.4762                14.2634                17.0186
 IR Inten    --      5.2556                57.6829               555.0580

                     67                     68                     69
                      A                      A                      A
 Frequencies --   1559.4984              1616.0359              1630.1219
 Red. masses --     11.9022                 4.0727                 1.2650
 Frc consts  --     17.0548                 6.2666                 1.9805
 IR Inten    --    467.0467               365.6502               201.4574

                     70                     71                     72
                      A                      A                      A
 Frequencies --   1683.5897              1704.4303              2990.7593
 Red. masses --     11.9650                11.8903                 1.0496
 Frc consts  --     19.9818                20.3517                 5.5316
 IR Inten    --      9.1437                 4.0807                56.6087

                     73                     74                     75
                      A                      A                      A
 Frequencies --   2999.1133              3033.4504              3053.0294
 Red. masses --      1.0401                 1.1051                 1.1052
 Frc consts  --      5.5120                 5.9912                 6.0694
 IR Inten    --     97.4575                99.3140                45.2289

                     76                     77                     78
                      A                      A                      A
 Frequencies --   3089.3018              3138.9939              3178.0386
 Red. masses --      1.0324                 1.0987                 1.1062
 Frc consts  --      5.8053                 6.3786                 6.5824
 IR Inten    --     21.6378                33.6339                 3.8644

                     79                     80                     81
                      A                      A                      A
 Frequencies --   3190.9492              3488.8971              3557.2451
 Red. masses --      1.1067                 1.0518                 1.0952
 Frc consts  --      6.6392                 7.5436                 8.1651
 IR Inten    --      6.2126                59.0571               111.5420

 - Thermochemistry -
 -------------------
 Temperature   298.150 Kelvin.  Pressure   1.00000 Atm.
 Atom     1 has atomic number  1 and mass   1.00783

 Molecular mass:   287.05808 amu.
 Principal axes and moments of inertia in atomic units:
                           1         2         3
     Eigenvalues --  3279.064586856.652979492.74661
           X            1.00000   0.00058   0.00259
           Y           -0.00060   0.99996   0.00940
           Z           -0.00258  -0.00941   0.99995
 This molecule is an asymmetric top.
 Rotational symmetry number  1.
 Warning -- assumption of classical behavior for rotation
           may cause significant error
 Rotational temperatures (Kelvin)      0.02641     0.01263     0.00912
 Rotational constants (GHZ):           0.55038     0.26321     0.19012
 Zero-point vibrational energy     534825.2 (Joules/Mol)
                                  127.82628 (Kcal/Mol)
 Warning -- explicit consideration of  31 degrees of freedom as
           vibrations may cause significant error
 Vibrational temperatures:     42.27    55.82    74.40    90.71   134.97
          (Kelvin)            142.81   200.40   208.83   231.35   249.07
                              269.04   278.90   330.14   336.75   373.77
                              389.81   399.61   408.93   431.33   451.36
                              496.20   504.00   550.31   557.86   563.05
                              594.44   650.85   699.00   823.24   838.50
                              885.05   962.07   979.33  1022.54  1025.56
                             1110.20  1160.72  1192.75  1396.64  1459.63
                             1467.17  1486.24  1505.57  1523.32  1580.38
                             1649.59  1679.31  1694.13  1695.21  1726.23
                             1776.32  1848.90  1890.43  1915.66  1928.76
                             1940.22  2045.98  2072.35  2110.00  2118.17
                             2135.16  2140.30  2144.53  2162.87  2181.42
                             2232.36  2243.77  2325.12  2345.38  2422.31
                             2452.29  4303.04  4315.06  4364.46  4392.63
                             4444.82  4516.31  4572.49  4591.06  5019.74
                             5118.08

 Zero-point correction=                           0.203704 (Hartree/Particle)
 Thermal correction to Energy=                    0.222894
 Thermal correction to Enthalpy=                  0.223839
 Thermal correction to Gibbs Free Energy=         0.155482
 Sum of electronic and zero-point Energies=          -1165.715166
 Sum of electronic and thermal Energies=             -1165.695975
 Sum of electronic and thermal Enthalpies=           -1165.695031
 Sum of electronic and thermal Free Energies=        -1165.763388

                     E (Thermal)             CV                S
                      KCal/Mol        Cal/Mol-Kelvin    Cal/Mol-Kelvin
 Total                  139.868             68.489            143.869
 Electronic               0.000              0.000              0.000
 Translational            0.889              2.981             42.861
 Rotational               0.889              2.981             33.723
 Vibrational            138.091             62.528             67.285
 Vibration     1          0.593              1.984              5.871
 Vibration     2          0.594              1.981              5.319
 Vibration     3          0.596              1.977              4.751
 Vibration     4          0.597              1.972              4.359
 Vibration     5          0.603              1.954              3.579
 Vibration     6          0.604              1.950              3.469
 Vibration     7          0.615              1.914              2.814
 Vibration     8          0.617              1.908              2.735
 Vibration     9          0.622              1.890              2.540
 Vibration    10          0.627              1.876              2.401
 Vibration    11          0.632              1.858              2.257
 Vibration    12          0.635              1.848              2.191
 Vibration    13          0.652              1.796              1.883
 Vibration    14          0.654              1.789              1.848
 Vibration    15          0.668              1.746              1.663
 Vibration    16          0.675              1.727              1.590
 Vibration    17          0.679              1.715              1.548
 Vibration    18          0.683              1.703              1.508
 Vibration    19          0.692              1.674              1.418
 Vibration    20          0.702              1.648              1.343
 Vibration    21          0.723              1.586              1.190
 Vibration    22          0.727              1.575              1.165
 Vibration    23          0.752              1.508              1.029
 Vibration    24          0.756              1.496              1.009
 Vibration    25          0.759              1.489              0.995
 Vibration    26          0.777              1.442              0.916
 Vibration    27          0.811              1.356              0.789
 Vibration    28          0.842              1.281              0.695
 Vibration    29          0.928              1.091              0.500
 Vibration    30          0.940              1.069              0.480
 Vibration    31          0.975              1.000              0.424

                           ! Non-Optimized Parameters !
 Normal termination of Gaussian 16 at Thu Aug 29 01:33:13 2024.
