 Gaussian 16, Revision B.01,
 Gaussian 16:  ES64L-G16RevB.01 20-Dec-2017

 ----------------------------------------------------------------------
 #P PBE1PBE/def2TZVP opt=(calcfc, ts, noeigentest) freq EmpiricalDisper
 sion=GD3 Int=(grid=99590) scrf=(iefpcm, solvent=water)
 ----------------------------------------------------------------------

 ------------------
 pfp-ch2F_ester ts1
 ------------------
 Symbolic Z-matrix:
 Charge =  0 Multiplicity = 1

 SCF Done:  E(RPBE1PBE) =  -1150.66505057     A.U. after   12 cycles
 SCF Done:  E(RPBE1PBE) =  -1150.66751315     A.U. after   11 cycles
 SCF Done:  E(RPBE1PBE) =  -1150.66758852     A.U. after   10 cycles
 SCF Done:  E(RPBE1PBE) =  -1150.66761305     A.U. after    9 cycles
 SCF Done:  E(RPBE1PBE) =  -1150.66762739     A.U. after    9 cycles
 SCF Done:  E(RPBE1PBE) =  -1150.66762781     A.U. after    8 cycles
 SCF Done:  E(RPBE1PBE) =  -1150.66762832     A.U. after    8 cycles
 SCF Done:  E(RPBE1PBE) =  -1150.66738371     A.U. after   10 cycles
 SCF Done:  E(RPBE1PBE) =  -1150.66760694     A.U. after   10 cycles
 SCF Done:  E(RPBE1PBE) =  -1150.66762603     A.U. after    9 cycles
 SCF Done:  E(RPBE1PBE) =  -1150.66762710     A.U. after    9 cycles
 SCF Done:  E(RPBE1PBE) =  -1150.66762895     A.U. after    8 cycles
 SCF Done:  E(RPBE1PBE) =  -1150.66762895     A.U. after    7 cycles
 SCF Done:  E(RPBE1PBE) =  -1150.66762895     A.U. after    6 cycles
 SCF Done:  E(RPBE1PBE) =  -1150.66762895     A.U. after    6 cycles
 Optimization completed.
    -- Stationary point found.
 Normal termination of Gaussian 16 at Thu Aug 29 21:13:33 2024.

 ----------------------------------------------------------------------
 #P Geom=AllCheck Guess=TCheck SCRF=Check GenChk RPBE1PBE/def2TZVP Freq
 ----------------------------------------------------------------------

 Structure from the checkpoint file:  "/scratch/Gau-2017480.chk"
 ------------------
 pfp-ch2F_ester ts1
 ------------------
 Charge =  0 Multiplicity = 1

                         Standard orientation:
 ---------------------------------------------------------------------
 Center     Atomic      Atomic             Coordinates (Angstroms)
 Number     Number       Type             X           Y           Z
 ---------------------------------------------------------------------
      1          1           0        1.884182   -2.032033   -0.099767
      2          8           0        1.727503    0.343427    1.306280
      3          6           0        2.129710    0.173017    0.159721
      4          7           0        2.740165   -1.489569   -0.025189
      5          1           0        3.237005   -1.613066   -0.903538
      6          6           0        3.534039   -1.927532    1.123001
      7          1           0        4.518482   -1.465003    1.086552
      8          1           0        3.016467   -1.607612    2.026386
      9          1           0        3.647073   -3.011389    1.125221
     10          6           0        3.306422    0.957073   -0.406083
     11          8           0        1.128786    0.124428   -0.924164
     12          6           0       -0.157576    0.064319   -0.526075
     13          6           0       -0.839409   -1.145631   -0.483807
     14          6           0       -0.867272    1.213193   -0.193225
     15          6           0       -2.176896   -1.218603   -0.139046
     16          6           0       -2.204940    1.156829    0.157300
     17          6           0       -2.863048   -0.061059    0.184231
     18          9           0       -0.192330   -2.273189   -0.781432
     19          9           0       -0.263555    2.393156   -0.221753
     20          9           0       -2.801006   -2.389260   -0.113767
     21          9           0       -2.862267    2.267760    0.465977
     22          9           0       -4.145162   -0.117870    0.516405
     23          9           0        3.021343    2.305518   -0.322595
     24          1           0        4.195118    0.758385    0.196289
     25          1           0        3.490814    0.710173   -1.453364
 ---------------------------------------------------------------------

 SCF Done:  E(RPBE1PBE) =  -1150.66762895     A.U. after    1 cycles

 The electronic state is 1-A.
 Alpha  occ. eigenvalues --  -24.82047 -24.81869 -24.81749 -24.81646 -24.81162
 Alpha  occ. eigenvalues --  -24.76652 -19.24817 -19.16359 -14.45473 -10.36814
 Alpha  occ. eigenvalues --  -10.34477 -10.34291 -10.34188 -10.34028 -10.33846
 Alpha  occ. eigenvalues --  -10.31527 -10.30214 -10.26028  -1.31123  -1.30500
 Alpha  occ. eigenvalues --   -1.29863  -1.29087  -1.28656  -1.23933  -1.12679
 Alpha  occ. eigenvalues --   -1.04141  -0.97783  -0.93011  -0.81425  -0.81154
 Alpha  occ. eigenvalues --   -0.76852  -0.72372  -0.69820  -0.69795  -0.64109
 Alpha  occ. eigenvalues --   -0.62862  -0.62504  -0.59712  -0.57919  -0.57677
 Alpha  occ. eigenvalues --   -0.57019  -0.56229  -0.55570  -0.55101  -0.53390
 Alpha  occ. eigenvalues --   -0.52937  -0.52186  -0.50876  -0.50616  -0.50105
 Alpha  occ. eigenvalues --   -0.49593  -0.48480  -0.48199  -0.47631  -0.47091
 Alpha  occ. eigenvalues --   -0.44872  -0.44553  -0.43184  -0.41776  -0.41523
 Alpha  occ. eigenvalues --   -0.40604  -0.39000  -0.37437  -0.36940  -0.33573
 Alpha  occ. eigenvalues --   -0.30146  -0.27590  -0.27435  -0.27038
 Alpha virt. eigenvalues --   -0.02217  -0.01526  -0.01269   0.03578   0.05036
 Alpha virt. eigenvalues --    0.07010   0.07883   0.08818   0.09374   0.10865
 Alpha virt. eigenvalues --    0.11900   0.12333   0.12815   0.14011   0.15565

 Mulliken charges:
               1
     1  H    0.264366
     2  O   -0.486973
     3  C    0.269749
     4  N   -0.228503
     5  H    0.283473
     6  C   -0.319868
     7  H    0.161585
     8  H    0.161765
     9  H    0.167366
    10  C   -0.026711
    11  O   -0.311503
    12  C    0.133869
    13  C    0.178199
    14  C    0.167074
    15  C    0.141688
    16  C    0.148772
    17  C    0.163165
    18  F   -0.191689
    19  F   -0.172417
    20  F   -0.171604
    21  F   -0.172392
    22  F   -0.169808
    23  F   -0.244289
    24  H    0.126328
    25  H    0.128358
 Sum of Mulliken charges =  -0.00000

 Dipole moment (field-independent basis, Debye):
    X=              6.0020    Y=             -7.1983    Z=             -2.5359  Tot=              9.7093
 Quadrupole moment (field-independent basis, Debye-Ang):
   XX=            -79.9134   YY=           -101.8574   ZZ=           -100.2466
   XY=            -19.5326   XZ=             -2.8503   YZ=             -2.3836

  Exact polarizability: 190.035  -5.038 171.139 -10.715   5.543 113.994
 Approx polarizability: 202.084  -3.155 201.362 -18.652  11.203 133.511

 ******    1 imaginary frequencies (negative Signs) ******

                      1                      2                      3
                      A                      A                      A
 Frequencies --    -77.9008                20.1804                40.9091
 Red. masses --      4.4467                 7.7014                 3.8427
 Frc consts  --      0.0159                 0.0018                 0.0038
 IR Inten    --    150.2790                 8.0169                 8.3718

                      4                      5                      6
                      A                      A                      A
 Frequencies --     57.3798                74.5557                93.7918
 Red. masses --      4.8028                 5.7960                 5.7613
 Frc consts  --      0.0093                 0.0190                 0.0299
 IR Inten    --     12.5974                16.7408                 1.8360

                      7                      8                      9
                      A                      A                      A
 Frequencies --    140.2430               144.3829               169.4183
 Red. masses --     17.9363                 8.2395                 2.3949
 Frc consts  --      0.2078                 0.1012                 0.0405
 IR Inten    --      0.0239                 3.2130                 4.3222

                     10                     11                     12
                      A                      A                      A
 Frequencies --    186.9520               190.7996               219.7927
 Red. masses --     12.9629                 1.9973                 2.7636
 Frc consts  --      0.2669                 0.0428                 0.0787
 IR Inten    --      0.4932                 0.9711                20.7640

                     13                     14                     15
                      A                      A                      A
 Frequencies --    235.9538               273.4132               275.9845
 Red. masses --     10.7956                12.0386                16.0510
 Frc consts  --      0.3541                 0.5302                 0.7203
 IR Inten    --      4.2747                12.0972                 0.8217

                     16                     17                     18
                      A                      A                      A
 Frequencies --    291.0506               299.9005               316.4706
 Red. masses --      7.1694                 4.7794                 9.7094
 Frc consts  --      0.3578                 0.2533                 0.5729
 IR Inten    --     57.0247                 2.6010                21.8984

                     19                     20                     21
                      A                      A                      A
 Frequencies --    342.9417               359.9838               379.8298
 Red. masses --      5.4112                 6.1574                 9.8732
 Frc consts  --      0.3750                 0.4701                 0.8392
 IR Inten    --      2.0304                 7.0877                13.9145

                     22                     23                     24
                      A                      A                      A
 Frequencies --    385.2262               409.8948               453.9415
 Red. masses --     12.5789                 9.2959                14.9700
 Frc consts  --      1.0998                 0.9202                 1.8175
 IR Inten    --      0.4896                25.7844                 1.3491

                     25                     26                     27
                      A                      A                      A
 Frequencies --    481.7177               573.7078               591.4578
 Red. masses --      9.2487                 7.8809                10.4488
 Frc consts  --      1.2645                 1.5283                 2.1536
 IR Inten    --      5.7078                19.5197                15.3717

                     28                     29                     30
                      A                      A                      A
 Frequencies --    605.9690               658.9418               673.3071
 Red. masses --      6.8517                 2.4224                11.7604
 Frc consts  --      1.4823                 0.6197                 3.1412
 IR Inten    --     73.7788               168.8127                 0.4720

                     31                     32                     33
                      A                      A                      A
 Frequencies --    709.0335               729.1614               784.7304
 Red. masses --     11.1814                 5.9837                 4.5184
 Frc consts  --      3.3119                 1.8744                 1.6394
 IR Inten    --      5.4014               156.7468                90.6213

                     34                     35                     36
                      A                      A                      A
 Frequencies --    793.0594               802.6209               972.6916
 Red. masses --      4.7017                 7.3852                 1.8089
 Frc consts  --      1.7423                 2.8031                 1.0084
 IR Inten    --     71.7094                39.6597                54.7667

                     37                     38                     39
                      A                      A                      A
 Frequencies --   1017.1090              1025.7890              1040.2728
 Red. masses --     13.3511                 4.4182                 1.9545
 Frc consts  --      8.1377                 2.7391                 1.2462
 IR Inten    --    438.8295               637.5233                88.9081

                     40                     41                     42
                      A                      A                      A
 Frequencies --   1049.0082              1077.0355              1096.9421
 Red. masses --      1.8090                 3.9200                 2.4619
 Frc consts  --      1.1729                 2.6791                 1.7454
 IR Inten    --    111.0544                70.6275                 7.1693

                     43                     44                     45
                      A                      A                      A
 Frequencies --   1139.5508              1172.0625              1194.8563
 Red. masses --      2.6962                13.3723                 7.9674
 Frc consts  --      2.0628                10.8232                 6.7019
 IR Inten    --    187.7626                 1.2318                 1.0840

                     46                     47                     48
                      A                      A                      A
 Frequencies --   1266.3059              1294.5953              1331.4839
 Red. masses --      1.3000                 1.1344                11.2912
 Frc consts  --      1.2282                 1.1202                11.7941
 IR Inten    --     51.6551                61.5628                 2.0298

                     49                     50                     51
                      A                      A                      A
 Frequencies --   1341.8676              1342.4450              1416.0092
 Red. masses --      5.3726                 1.4788                 1.3327
 Frc consts  --      5.6997                 1.5702                 1.5744
 IR Inten    --      3.6614                18.1996                11.5029

                     52                     53                     54
                      A                      A                      A
 Frequencies --   1441.5294              1482.4673              1486.2491
 Red. masses --      1.1777                 1.0733                 1.0440
 Frc consts  --      1.4419                 1.3898                 1.3587
 IR Inten    --     16.3066                11.5285                19.8770

                     55                     56                     57
                      A                      A                      A
 Frequencies --   1493.8116              1516.0649              1555.0757
 Red. masses --      1.0434                11.8365                12.2128
 Frc consts  --      1.3719                16.0291                17.4007
 IR Inten    --     12.1437                36.8310               563.0027

                     58                     59                     60
                      A                      A                      A
 Frequencies --   1562.3118              1635.7242              1650.1182
 Red. masses --     12.1877                 1.1974                 5.3743
 Frc consts  --     17.5270                 1.8875                 8.6219
 IR Inten    --    497.2203                37.6830               491.1894

                     61                     62                     63
                      A                      A                      A
 Frequencies --   1687.3764              1705.1588              3077.6323
 Red. masses --     12.0226                11.9490                 1.0548
 Frc consts  --     20.1685                20.4697                 5.8867
 IR Inten    --      7.1028                 4.8281                21.8371

                     64                     65                     66
                      A                      A                      A
 Frequencies --   3080.3522              3142.5705              3164.8631
 Red. masses --      1.0336                 1.1111                 1.1054
 Frc consts  --      5.7786                 6.4649                 6.5237
 IR Inten    --     33.0193                25.2282                 6.3190

                     67                     68                     69
                      A                      A                      A
 Frequencies --   3179.1779              3500.4791              3571.2540
 Red. masses --      1.1061                 1.0518                 1.0950
 Frc consts  --      6.5868                 7.5934                 8.2282
 IR Inten    --      8.7652                49.9899                99.9008

 - Thermochemistry -
 -------------------
 Temperature   298.150 Kelvin.  Pressure   1.00000 Atm.
 Atom     1 has atomic number  1 and mass   1.00783

 Molecular mass:   275.03810 amu.
 Principal axes and moments of inertia in atomic units:
                           1         2         3
     Eigenvalues --  2822.540316181.542178295.70188
           X            0.99931  -0.03622   0.00813
           Y            0.03635   0.99921  -0.01608
           Z           -0.00754   0.01636   0.99984
 This molecule is an asymmetric top.
 Rotational symmetry number  1.
 Warning -- assumption of classical behavior for rotation
           may cause significant error
 Rotational temperatures (Kelvin)      0.03069     0.01401     0.01044
 Rotational constants (GHZ):           0.63940     0.29196     0.21755
    1 imaginary frequencies ignored.
 Zero-point vibrational energy     427527.1 (Joules/Mol)
                                  102.18142 (Kcal/Mol)
 Warning -- explicit consideration of  27 degrees of freedom as
           vibrations may cause significant error
 Vibrational temperatures:     29.04    58.86    82.56   107.27   134.95
          (Kelvin)            201.78   207.73   243.76   268.98   274.52
                              316.23   339.48   393.38   397.08   418.76
                              431.49   455.33   493.42   517.94   546.49
                              554.25   589.75   653.12   693.08   825.44
                              850.98   871.85   948.07   968.74  1020.14
                             1049.10  1129.05  1141.04  1154.79  1399.49
                             1463.39  1475.88  1496.72  1509.29  1549.61
                             1578.26  1639.56  1686.34  1719.13  1821.93
                             1862.63  1915.71  1930.65  1931.48  2037.32
                             2074.04  2132.94  2138.38  2149.26  2181.28
                             2237.41  2247.82  2353.44  2374.15  2427.76
                             2453.34  4428.03  4431.94  4521.46  4553.53
                             4574.13  5036.41  5138.24

 Zero-point correction=                           0.162836 (Hartree/Particle)
 Thermal correction to Energy=                    0.179805
 Thermal correction to Enthalpy=                  0.180749
 Thermal correction to Gibbs Free Energy=         0.116740
 Sum of electronic and zero-point Energies=          -1150.504792
 Sum of electronic and thermal Energies=             -1150.487824
 Sum of electronic and thermal Enthalpies=           -1150.486880
 Sum of electronic and thermal Free Energies=        -1150.550889

                     E (Thermal)             CV                S
                      KCal/Mol        Cal/Mol-Kelvin    Cal/Mol-Kelvin
 Total                  112.829             60.580            134.719
 Electronic               0.000              0.000              0.000
 Translational            0.889              2.981             42.734
 Rotational               0.889              2.981             33.337
 Vibrational            111.052             54.619             58.649
 Vibration     1          0.593              1.986              6.616
 Vibration     2          0.594              1.981              5.215
 Vibration     3          0.596              1.975              4.545
 Vibration     4          0.599              1.966              4.029
 Vibration     5          0.603              1.954              3.579
 Vibration     6          0.615              1.913              2.801
 Vibration     7          0.616              1.909              2.745
 Vibration     8          0.625              1.880              2.442
 Vibration     9          0.632              1.858              2.258
 Vibration    10          0.634              1.853              2.220
 Vibration    11          0.647              1.811              1.961
 Vibration    12          0.655              1.786              1.833
 Vibration    13          0.676              1.722              1.575
 Vibration    14          0.678              1.718              1.558
 Vibration    15          0.687              1.690              1.468
 Vibration    16          0.692              1.674              1.417
 Vibration    17          0.703              1.642              1.328
 Vibration    18          0.722              1.590              1.198
 Vibration    19          0.734              1.555              1.122
 Vibration    20          0.750              1.513              1.040
 Vibration    21          0.754              1.502              1.019
 Vibration    22          0.774              1.449              0.927
 Vibration    23          0.812              1.352              0.784
 Vibration    24          0.838              1.291              0.705
 Vibration    25          0.930              1.088              0.497
 Vibration    26          0.949              1.050              0.465
 Vibration    27          0.965              1.019              0.440

 Optimization completed.
    -- Stationary point found.
 Normal termination of Gaussian 16 at Thu Aug 29 21:32:37 2024.
