 Gaussian 16, Revision B.01,
 Gaussian 16:  ES64L-G16RevB.01 20-Dec-2017

 ----------------------------------------------------------------------
 #P PBE1PBE/def2TZVP opt freq EmpiricalDispersion=GD3 Int=(grid=99590)
 scrf=(iefpcm, solvent=water)
 ----------------------------------------------------------------------

 -------------------
 pfp-cf3_ester inter
 -------------------
 Symbolic Z-matrix:
 Charge =  0 Multiplicity = 1

 SCF Done:  E(RPBE1PBE) =  -1349.07212528     A.U. after   12 cycles
 SCF Done:  E(RPBE1PBE) =  -1349.07630848     A.U. after   10 cycles
 SCF Done:  E(RPBE1PBE) =  -1349.07658738     A.U. after   10 cycles
 SCF Done:  E(RPBE1PBE) =  -1349.07622509     A.U. after   10 cycles
 SCF Done:  E(RPBE1PBE) =  -1349.07759794     A.U. after   10 cycles
 SCF Done:  E(RPBE1PBE) =  -1349.07785837     A.U. after    9 cycles
 SCF Done:  E(RPBE1PBE) =  -1349.07793017     A.U. after    9 cycles
 SCF Done:  E(RPBE1PBE) =  -1349.07799869     A.U. after   10 cycles
 SCF Done:  E(RPBE1PBE) =  -1349.07696922     A.U. after   13 cycles
 SCF Done:  E(RPBE1PBE) =  -1349.01159760     A.U. after   12 cycles
 SCF Done:  E(RPBE1PBE) =  -1349.07849612     A.U. after    9 cycles
 SCF Done:  E(RPBE1PBE) =  -1349.07851209     A.U. after    9 cycles
 SCF Done:  E(RPBE1PBE) =  -1349.07852852     A.U. after    8 cycles
 SCF Done:  E(RPBE1PBE) =  -1349.07853750     A.U. after    8 cycles
 SCF Done:  E(RPBE1PBE) =  -1349.07854296     A.U. after    8 cycles
 SCF Done:  E(RPBE1PBE) =  -1349.07854636     A.U. after    7 cycles
 SCF Done:  E(RPBE1PBE) =  -1349.07854663     A.U. after    7 cycles
 SCF Done:  E(RPBE1PBE) =  -1349.07854671     A.U. after    6 cycles
 SCF Done:  E(RPBE1PBE) =  -1349.07854673     A.U. after    5 cycles
 Optimization completed.
    -- Stationary point found.
 Normal termination of Gaussian 16 at Wed Aug 28 19:15:07 2024.

 ----------------------------------------------------------------------
 #P Geom=AllCheck Guess=TCheck SCRF=Check GenChk RPBE1PBE/def2TZVP Freq
 ----------------------------------------------------------------------

 Structure from the checkpoint file:  "/scratch/Gau-324038.chk"
 -------------------
 pfp-cf3_ester inter
 -------------------
 Charge =  0 Multiplicity = 1

                         Standard orientation:
 ---------------------------------------------------------------------
 Center     Atomic      Atomic             Coordinates (Angstroms)
 Number     Number       Type             X           Y           Z
 ---------------------------------------------------------------------
      1          1           0       -1.669658    2.054023   -0.857502
      2          8           0       -1.302087    0.589897    1.316747
      3          6           0       -1.730975    0.249539    0.211553
      4          7           0       -2.456952    1.464556   -0.591421
      5          1           0       -2.875950    1.126700   -1.456769
      6          6           0       -3.414952    2.236868    0.217172
      7          1           0       -4.320411    1.654178    0.361219
      8          1           0       -2.945315    2.441507    1.176703
      9          1           0       -3.649233    3.167292   -0.295629
     10          6           0       -2.741213   -0.934114    0.176232
     11          8           0       -0.751199   -0.136690   -0.847037
     12          6           0        0.543488   -0.058785   -0.484532
     13          6           0        1.185799    1.160065   -0.303331
     14          6           0        1.298002   -1.215979   -0.326426
     15          6           0        2.527279    1.232238    0.023787
     16          6           0        2.644367   -1.159171   -0.009724
     17          6           0        3.260459    0.067129    0.171077
     18          9           0        0.504167    2.293039   -0.467513
     19          9           0        0.726702   -2.402306   -0.487160
     20          9           0        3.114579    2.410178    0.190568
     21          9           0        3.345591   -2.277202    0.128452
     22          9           0        4.548276    0.126116    0.479786
     23          9           0       -3.238972   -1.164445   -1.048141
     24          9           0       -3.776960   -0.691014    0.985584
     25          9           0       -2.150941   -2.048587    0.596133
 ---------------------------------------------------------------------

 SCF Done:  E(RPBE1PBE) =  -1349.07854673     A.U. after    1 cycles

 The electronic state is 1-A.
 Alpha  occ. eigenvalues --  -24.82069 -24.81888 -24.81767 -24.81724 -24.81700
 Alpha  occ. eigenvalues --  -24.81565 -24.81527 -24.81313 -19.25442 -19.16717
 Alpha  occ. eigenvalues --  -14.48813 -10.47550 -10.38713 -10.34510 -10.34331
 Alpha  occ. eigenvalues --  -10.34259 -10.34101 -10.33986 -10.31800 -10.27081
 Alpha  occ. eigenvalues --   -1.36610  -1.31160  -1.30557  -1.29931  -1.29147
 Alpha  occ. eigenvalues --   -1.28727  -1.27534  -1.27417  -1.13562  -1.05262
 Alpha  occ. eigenvalues --   -1.00382  -0.93107  -0.81773  -0.81247  -0.77654
 Alpha  occ. eigenvalues --   -0.74252  -0.70559  -0.69901  -0.67410  -0.63826
 Alpha  occ. eigenvalues --   -0.63278  -0.62925  -0.62806  -0.61327  -0.60466
 Alpha  occ. eigenvalues --   -0.57830  -0.57711  -0.56834  -0.56663  -0.55687
 Alpha  occ. eigenvalues --   -0.55343  -0.52987  -0.52395  -0.51182  -0.50356
 Alpha  occ. eigenvalues --   -0.50245  -0.50150  -0.49648  -0.49196  -0.47748
 Alpha  occ. eigenvalues --   -0.47205  -0.46637  -0.46312  -0.45951  -0.44920
 Alpha  occ. eigenvalues --   -0.44503  -0.44144  -0.43022  -0.42201  -0.41579
 Alpha  occ. eigenvalues --   -0.41258  -0.37533  -0.34700  -0.30669  -0.28999
 Alpha  occ. eigenvalues --   -0.27532  -0.26895
 Alpha virt. eigenvalues --   -0.02301  -0.01559  -0.01310   0.03851   0.06997
 Alpha virt. eigenvalues --    0.07697   0.08177   0.09136   0.10012   0.11754
 Alpha virt. eigenvalues --    0.11946   0.12556   0.13937   0.14331   0.15192

 Mulliken charges:
               1
     1  H    0.283413
     2  O   -0.489224
     3  C    0.171966
     4  N   -0.143724
     5  H    0.298354
     6  C   -0.318319
     7  H    0.172214
     8  H    0.170304
     9  H    0.176708
    10  C    0.428642
    11  O   -0.327276
    12  C    0.119117
    13  C    0.230586
    14  C    0.138004
    15  C    0.139383
    16  C    0.147916
    17  C    0.165990
    18  F   -0.195033
    19  F   -0.172313
    20  F   -0.171133
    21  F   -0.171812
    22  F   -0.169615
    23  F   -0.167004
    24  F   -0.162996
    25  F   -0.154148
 Sum of Mulliken charges =  -0.00000

 Dipole moment (field-independent basis, Debye):
    X=             -5.0969    Y=              5.7226    Z=             -4.6389  Tot=              8.9580
 Quadrupole moment (field-independent basis, Debye-Ang):
   XX=            -98.9408   YY=           -105.2382   ZZ=           -109.3204
   XY=            -16.9282   XZ=              6.9317   YZ=             -5.5287

  Exact polarizability: 191.703  -7.999 166.977  11.418   0.884 113.341
 Approx polarizability: 205.436  -4.656 196.210  18.434   2.509 134.984

                      1                      2                      3
                      A                      A                      A
 Frequencies --     30.3689                40.0970                54.9879
 Red. masses --      9.1783                11.2853                12.9140
 Frc consts  --      0.0050                 0.0107                 0.0230
 IR Inten    --      4.5884                 3.9169                 0.1853

                      4                      5                      6
                      A                      A                      A
 Frequencies --     65.2519               106.1672               138.2987
 Red. masses --      6.5434                 2.9555                12.9333
 Frc consts  --      0.0164                 0.0196                 0.1457
 IR Inten    --      1.8803                 0.6006                 0.7129

                      7                      8                      9
                      A                      A                      A
 Frequencies --    147.2493               148.9228               184.5485
 Red. masses --     11.7054                11.7501                 5.2812
 Frc consts  --      0.1495                 0.1535                 0.1060
 IR Inten    --      0.4413                 2.9018                 6.7855

                     10                     11                     12
                      A                      A                      A
 Frequencies --    187.7992               206.6728               233.5621
 Red. masses --      6.1593                 1.6729                10.7849
 Frc consts  --      0.1280                 0.0421                 0.3466
 IR Inten    --      5.4376                 2.9829                 9.8474

                     13                     14                     15
                      A                      A                      A
 Frequencies --    238.9419               272.0095               278.1447
 Red. masses --      3.0129                 7.1092                11.4186
 Frc consts  --      0.1013                 0.3099                 0.5205
 IR Inten    --     15.9535                 1.2822                 2.3993

                     16                     17                     18
                      A                      A                      A
 Frequencies --    278.9758               302.4130               312.3234
 Red. masses --     14.8912                13.1119                16.0856
 Frc consts  --      0.6828                 0.7065                 0.9245
 IR Inten    --      0.7356                23.6055                 1.7423

                     19                     20                     21
                      A                      A                      A
 Frequencies --    347.4226               349.3586               363.6749
 Red. masses --      7.9995                 7.8896                10.8545
 Frc consts  --      0.5689                 0.5673                 0.8458
 IR Inten    --     12.5727                 2.9872                 0.5559

                     22                     23                     24
                      A                      A                      A
 Frequencies --    383.5390               393.7782               409.9430
 Red. masses --     12.6359                12.8447                 6.6877
 Frc consts  --      1.0952                 1.1735                 0.6622
 IR Inten    --      1.3722                 1.8918                20.2019

                     25                     26                     27
                      A                      A                      A
 Frequencies --    447.5438               456.6789               492.7672
 Red. masses --     10.2056                11.7548                 9.4755
 Frc consts  --      1.2044                 1.4444                 1.3556
 IR Inten    --     46.3741                35.3744                29.0753

                     28                     29                     30
                      A                      A                      A
 Frequencies --    537.9592               560.7995               588.2904
 Red. masses --     13.6627                12.7819                17.0172
 Frc consts  --      2.3296                 2.3684                 3.4699
 IR Inten    --     33.0580                17.2836                 1.3861

                     31                     32                     33
                      A                      A                      A
 Frequencies --    622.8836               654.9479               671.0818
 Red. masses --      5.6324                12.8798                12.1867
 Frc consts  --      1.2875                 3.2552                 3.2336
 IR Inten    --     23.4572                 3.1513                 0.5126

                     34                     35                     36
                      A                      A                      A
 Frequencies --    696.1051               731.7661               768.0071
 Red. masses --      7.0583                 9.0418                 6.4246
 Frc consts  --      2.0151                 2.8527                 2.2327
 IR Inten    --     63.9766                91.7790                99.6565

                     37                     38                     39
                      A                      A                      A
 Frequencies --    788.7239               812.6400               844.6536
 Red. masses --      5.1281                 7.8809                 3.9620
 Frc consts  --      1.8796                 3.0664                 1.6654
 IR Inten    --     50.4075                33.0865               279.5077

                     40                     41                     42
                      A                      A                      A
 Frequencies --    936.6909              1017.5556              1030.0500
 Red. masses --      2.5651                13.9487                10.4405
 Frc consts  --      1.3260                 8.5094                 6.5266
 IR Inten    --    218.8889               451.8864               538.3728

                     43                     44                     45
                      A                      A                      A
 Frequencies --   1047.6792              1113.7175              1144.2865
 Red. masses --      3.1032                 1.5209                 1.7001
 Frc consts  --      2.0069                 1.1115                 1.3115
 IR Inten    --     92.9073                79.5740               181.6781

                     46                     47                     48
                      A                      A                      A
 Frequencies --   1165.1785              1173.1384              1186.8245
 Red. masses --     12.0731                13.2488                12.9725
 Frc consts  --      9.6573                10.7430                10.7658
 IR Inten    --    316.3523                12.0769               165.8973

                     49                     50                     51
                      A                      A                      A
 Frequencies --   1206.3622              1288.3354              1333.8288
 Red. masses --      8.0350                 5.1630                 9.8841
 Frc consts  --      6.8896                 5.0491                10.3606
 IR Inten    --    216.2907               136.0230                 1.8831

                     52                     53                     54
                      A                      A                      A
 Frequencies --   1334.2473              1341.3536              1366.5179
 Red. masses --      1.3501                 9.7580                 1.4361
 Frc consts  --      1.4161                10.3442                 1.5800
 IR Inten    --     58.6869                12.0275               100.1971

                     55                     56                     57
                      A                      A                      A
 Frequencies --   1442.3243              1491.0533              1491.7989
 Red. masses --      1.1701                 1.0430                 1.0429
 Frc consts  --      1.4341                 1.3662                 1.3674
 IR Inten    --     15.3324                19.6897                31.9186

                     58                     59                     60
                      A                      A                      A
 Frequencies --   1519.5538              1555.9371              1561.8157
 Red. masses --     11.5014                11.8720                11.9421
 Frc consts  --     15.6471                16.9339                17.1628
 IR Inten    --     43.5293               555.5706               474.0780

                     61                     62                     63
                      A                      A                      A
 Frequencies --   1609.6303              1630.5653              1688.6386
 Red. masses --      6.9571                 1.1245                11.9687
 Frc consts  --     10.6201                 1.7615                20.1081
 IR Inten    --    380.6578               121.4429                 4.4317

                     64                     65                     66
                      A                      A                      A
 Frequencies --   1705.6508              3099.2511              3190.5545
 Red. masses --     11.9551                 1.0323                 1.1067
 Frc consts  --     20.4921                 5.8418                 6.6376
 IR Inten    --      1.7683                14.5396                 1.0016

                     67                     68                     69
                      A                      A                      A
 Frequencies --   3207.6780              3476.8351              3540.1187
 Red. masses --      1.1069                 1.0523                 1.0948
 Frc consts  --      6.7106                 7.4947                 8.0840
 IR Inten    --      2.3568                66.4968               129.5379

 - Thermochemistry -
 -------------------
 Temperature   298.150 Kelvin.  Pressure   1.00000 Atm.
 Atom     1 has atomic number  1 and mass   1.00783

 Molecular mass:   311.01925 amu.
 Principal axes and moments of inertia in atomic units:
                           1         2         3
     Eigenvalues --  3024.391328023.12389**********
           X            0.99951  -0.03129   0.00038
           Y            0.03129   0.99951  -0.00094
           Z           -0.00035   0.00095   1.00000
 This molecule is an asymmetric top.
 Rotational symmetry number  1.
 Warning -- assumption of classical behavior for rotation
           may cause significant error
 Rotational temperatures (Kelvin)      0.02864     0.01080     0.00847
 Rotational constants (GHZ):           0.59673     0.22494     0.17657
 Zero-point vibrational energy     389064.3 (Joules/Mol)
                                   92.98860 (Kcal/Mol)
 Warning -- explicit consideration of  30 degrees of freedom as
           vibrations may cause significant error
 Vibrational temperatures:     43.69    57.69    79.12    93.88   152.75
          (Kelvin)            198.98   211.86   214.27   265.52   270.20
                              297.36   336.04   343.78   391.36   400.19
                              401.38   435.10   449.36   499.86   502.65
                              523.25   551.83   566.56   589.82   643.92
                              657.06   708.98   774.00   806.87   846.42
                              896.19   942.32   965.54  1001.54  1052.85
                             1104.99  1134.80  1169.21  1215.27  1347.69
                             1464.04  1482.01  1507.38  1602.39  1646.37
                             1676.43  1687.88  1707.58  1735.69  1853.63
                             1919.08  1919.68  1929.91  1966.11  2075.18
                             2145.29  2146.37  2186.30  2238.65  2247.10
                             2315.90  2346.02  2429.57  2454.05  4459.13
                             4590.50  4615.13  5002.39  5093.44

 Zero-point correction=                           0.148187 (Hartree/Particle)
 Thermal correction to Energy=                    0.166555
 Thermal correction to Enthalpy=                  0.167500
 Thermal correction to Gibbs Free Energy=         0.101076
 Sum of electronic and zero-point Energies=          -1348.930360
 Sum of electronic and thermal Energies=             -1348.911991
 Sum of electronic and thermal Enthalpies=           -1348.911047
 Sum of electronic and thermal Free Energies=        -1348.977470

                     E (Thermal)             CV                S
                      KCal/Mol        Cal/Mol-Kelvin    Cal/Mol-Kelvin
 Total                  104.515             66.706            139.800
 Electronic               0.000              0.000              0.000
 Translational            0.889              2.981             43.100
 Rotational               0.889              2.981             33.872
 Vibrational            102.738             60.744             62.828
 Vibration     1          0.594              1.984              5.805
 Vibration     2          0.594              1.981              5.254
 Vibration     3          0.596              1.976              4.629
 Vibration     4          0.597              1.971              4.292
 Vibration     5          0.605              1.944              3.338
 Vibration     6          0.614              1.915              2.827
 Vibration     7          0.617              1.906              2.707
 Vibration     8          0.618              1.904              2.686
 Vibration     9          0.631              1.861              2.282
 Vibration    10          0.632              1.857              2.249
 Vibration    11          0.641              1.830              2.073
 Vibration    12          0.654              1.790              1.851
 Vibration    13          0.657              1.781              1.811
 Vibration    14          0.675              1.725              1.583
 Vibration    15          0.679              1.714              1.545
 Vibration    16          0.679              1.712              1.540
 Vibration    17          0.694              1.669              1.404
 Vibration    18          0.701              1.650              1.350
 Vibration    19          0.725              1.581              1.178
 Vibration    20          0.727              1.577              1.169
 Vibration    21          0.737              1.547              1.106
 Vibration    22          0.753              1.505              1.025
 Vibration    23          0.761              1.483              0.986
 Vibration    24          0.774              1.449              0.927
 Vibration    25          0.807              1.366              0.803
 Vibration    26          0.815              1.346              0.776
 Vibration    27          0.848              1.266              0.676
 Vibration    28          0.893              1.166              0.570
 Vibration    29          0.916              1.116              0.522
 Vibration    30          0.945              1.057              0.470

 Optimization completed.
    -- Stationary point found.
 Normal termination of Gaussian 16 at Wed Aug 28 19:38:30 2024.
