 Gaussian 16, Revision B.01,
 Gaussian 16:  ES64L-G16RevB.01 20-Dec-2017

 ----------------------------------------------------------------------
 #P PBE1PBE/def2TZVP opt=(calcfc, ts, noeigentest) freq EmpiricalDisper
 sion=GD3 Int=(grid=99590) scrf=(iefpcm, solvent=water)
 ----------------------------------------------------------------------

 ----------------
 tfp-pyridine ts2
 ----------------
 Symbolic Z-matrix:
 Charge =  0 Multiplicity = 1

 SCF Done:  E(RPBE1PBE) =  -968.340063822     A.U. after   13 cycles
 SCF Done:  E(RPBE1PBE) =  -968.356451310     A.U. after   11 cycles
 SCF Done:  E(RPBE1PBE) =  -968.363525604     A.U. after   11 cycles
 SCF Done:  E(RPBE1PBE) =  -968.364027304     A.U. after   14 cycles
 SCF Done:  E(RPBE1PBE) =  -968.364092547     A.U. after   11 cycles
 SCF Done:  E(RPBE1PBE) =  -968.362973111     A.U. after   11 cycles
 SCF Done:  E(RPBE1PBE) =  -968.363312415     A.U. after   11 cycles
 SCF Done:  E(RPBE1PBE) =  -968.362738711     A.U. after   14 cycles
 SCF Done:  E(RPBE1PBE) =  -968.361809290     A.U. after   12 cycles
 SCF Done:  E(RPBE1PBE) =  -968.362133276     A.U. after   11 cycles
 SCF Done:  E(RPBE1PBE) =  -968.362834767     A.U. after   11 cycles
 SCF Done:  E(RPBE1PBE) =  -968.362916053     A.U. after   11 cycles
 SCF Done:  E(RPBE1PBE) =  -968.362922580     A.U. after    9 cycles
 SCF Done:  E(RPBE1PBE) =  -968.362922965     A.U. after    7 cycles
 SCF Done:  E(RPBE1PBE) =  -968.362923186     A.U. after    7 cycles
 SCF Done:  E(RPBE1PBE) =  -968.362923154     A.U. after    8 cycles
 SCF Done:  E(RPBE1PBE) =  -968.362923354     A.U. after    8 cycles
 SCF Done:  E(RPBE1PBE) =  -968.362923371     A.U. after    6 cycles
 SCF Done:  E(RPBE1PBE) =  -968.362923382     A.U. after    6 cycles
 Optimization completed.
    -- Stationary point found.
 Normal termination of Gaussian 16 at Wed Jul 10 20:38:17 2024.

 ----------------------------------------------------------------------
 #P Geom=AllCheck Guess=TCheck SCRF=Check GenChk RPBE1PBE/def2TZVP Freq
 ----------------------------------------------------------------------

 Structure from the checkpoint file:  "/scratch/Gau-1108148.chk"
 ----------------
 tfp-pyridine ts2
 ----------------
 Charge =  0 Multiplicity = 1

                         Standard orientation:
 ---------------------------------------------------------------------
 Center     Atomic      Atomic             Coordinates (Angstroms)
 Number     Number       Type             X           Y           Z
 ---------------------------------------------------------------------
      1          8           0       -2.013066    0.091606    1.630122
      2          6           0       -2.511609   -0.493145    0.725598
      3          6           0       -2.907393   -1.917220    0.641490
      4          1           0       -2.581430   -2.430036    1.542468
      5          1           0       -3.993837   -1.995936    0.548146
      6          1           0       -2.452983   -2.370255   -0.239751
      7          1           0       -2.740787   -0.210821   -1.317688
      8          7           0       -2.921302    0.336659   -0.474605
      9          1           0       -2.252416    1.110618   -0.509825
     10          6           0       -4.318010    0.834461   -0.399559
     11          1           0       -4.507833    1.449609   -1.275463
     12          1           0       -4.999775   -0.011725   -0.385601
     13          1           0       -4.425498    1.426488    0.506084
     14          6           0        2.766816   -0.544949    0.132323
     15          6           0        1.614915   -1.136663   -0.317142
     16          6           0        0.452527   -0.360921   -0.587793
     17          6           0        0.661167    1.021796   -0.328752
     18          6           0        1.866578    1.491131    0.122591
     19          7           0        2.917069    0.741015    0.357305
     20          8           0       -0.638960   -0.843640   -0.997310
     21          9           0       -0.360726    1.877837   -0.546591
     22          9           0        1.564645   -2.462218   -0.511457
     23          9           0        3.835794   -1.312526    0.372229
     24          9           0        2.010337    2.801092    0.347784
 ---------------------------------------------------------------------

 SCF Done:  E(RPBE1PBE) =  -968.362923382     A.U. after    1 cycles

 The electronic state is 1-A.
 Alpha  occ. eigenvalues --  -24.80109 -24.79604 -24.79459 -24.78918 -19.24578
 Alpha  occ. eigenvalues --  -19.16570 -14.51132 -14.39240 -10.38837 -10.34551
 Alpha  occ. eigenvalues --  -10.34393 -10.30494 -10.30288 -10.29843 -10.28786
 Alpha  occ. eigenvalues --  -10.24672  -1.28468  -1.28088  -1.27049  -1.26349
 Alpha  occ. eigenvalues --   -1.14625  -1.04112  -1.03145  -0.99853  -0.81998
 Alpha  occ. eigenvalues --   -0.80835  -0.79172  -0.76107  -0.68220  -0.67042
 Alpha  occ. eigenvalues --   -0.64688  -0.61377  -0.60340  -0.59329  -0.58605
 Alpha  occ. eigenvalues --   -0.55434  -0.55156  -0.54044  -0.53284  -0.52309
 Alpha  occ. eigenvalues --   -0.50922  -0.49219  -0.48907  -0.48138  -0.47928
 Alpha  occ. eigenvalues --   -0.46663  -0.45882  -0.45447  -0.44354  -0.43300
 Alpha  occ. eigenvalues --   -0.43047  -0.42122  -0.41582  -0.41001  -0.40231
 Alpha  occ. eigenvalues --   -0.37048  -0.33330  -0.32876  -0.27585  -0.25798
 Alpha  occ. eigenvalues --   -0.23645
 Alpha virt. eigenvalues --   -0.04942   0.00586   0.01052   0.02307   0.05055
 Alpha virt. eigenvalues --    0.07037   0.07641   0.08786   0.09670   0.10630
 Alpha virt. eigenvalues --    0.10947   0.11220   0.12041   0.12819   0.13613

 Mulliken charges:
               1
     1  O   -0.252963
     2  C    0.225667
     3  C   -0.370561
     4  H    0.165096
     5  H    0.172593
     6  H    0.182110
     7  H    0.315791
     8  N   -0.090658
     9  H    0.294154
    10  C   -0.319683
    11  H    0.189360
    12  H    0.181957
    13  H    0.184765
    14  C    0.206445
    15  C    0.084596
    16  C    0.154178
    17  C    0.107209
    18  C    0.213543
    19  N   -0.248935
    20  O   -0.588178
    21  F   -0.229410
    22  F   -0.205933
    23  F   -0.186384
    24  F   -0.184759
 Sum of Mulliken charges =  -0.00000

 Dipole moment (field-independent basis, Debye):
    X=            -17.5777    Y=              0.0726    Z=             -2.1289  Tot=             17.7063
 Quadrupole moment (field-independent basis, Debye-Ang):
   XX=            -59.4034   YY=            -94.6492   ZZ=            -91.0833
   XY=             -1.4089   XZ=              4.0176   YZ=             -6.3139

  Exact polarizability: 187.844   6.262 159.858  19.219   7.111 113.889
 Approx polarizability: 203.980   9.491 184.959  27.841  14.523 133.196

 ******    1 imaginary frequencies (negative Signs) ******

                      1                      2                      3
                      A                      A                      A
 Frequencies --    -81.1239                25.6933                36.0403
 Red. masses --      1.8908                 9.4647                 2.1335
 Frc consts  --      0.0073                 0.0037                 0.0016
 IR Inten    --      2.1311                 4.3442                 6.7233

                      4                      5                      6
                      A                      A                      A
 Frequencies --     45.4099                55.2141               111.6241
 Red. masses --      5.5315                 5.3290                 2.9178
 Frc consts  --      0.0067                 0.0096                 0.0214
 IR Inten    --      1.6303                11.5992                 1.5111

                      7                      8                      9
                      A                      A                      A
 Frequencies --    126.7957               131.3594               134.6407
 Red. masses --      5.5885                 6.1630                 3.4274
 Frc consts  --      0.0529                 0.0627                 0.0366
 IR Inten    --     12.3056                11.8024                39.7406

                     10                     11                     12
                      A                      A                      A
 Frequencies --    168.0928               203.2777               213.8230
 Red. masses --      8.1893                 1.0989                13.1389
 Frc consts  --      0.1363                 0.0268                 0.3539
 IR Inten    --     33.0388                 1.2101                16.8021

                     13                     14                     15
                      A                      A                      A
 Frequencies --    263.1183               288.9576               305.2034
 Red. masses --      3.1507                18.2427                16.8794
 Frc consts  --      0.1285                 0.8974                 0.9264
 IR Inten    --     11.4974                 0.1259                 6.3078

                     16                     17                     18
                      A                      A                      A
 Frequencies --    348.7589               356.0946               357.8591
 Red. masses --     15.8590                15.3960                14.4736
 Frc consts  --      1.1365                 1.1502                 1.0921
 IR Inten    --      8.4457                 1.8806                13.7327

                     19                     20                     21
                      A                      A                      A
 Frequencies --    407.4204               426.8679               461.6512
 Red. masses --      2.2407                12.5589                15.9706
 Frc consts  --      0.2191                 1.3483                 2.0054
 IR Inten    --     14.2876                 0.1186                 1.5365

                     22                     23                     24
                      A                      A                      A
 Frequencies --    481.9145               519.0065               583.7233
 Red. masses --     15.6237                 3.4925                 2.5586
 Frc consts  --      2.1378                 0.5543                 0.5136
 IR Inten    --      5.0622                18.2365                11.7766

                     25                     26                     27
                      A                      A                      A
 Frequencies --    622.7792               682.6825               688.6807
 Red. masses --     15.9877                12.4880                12.1939
 Frc consts  --      3.6535                 3.4291                 3.4075
 IR Inten    --      1.0603                 4.3983                 0.0594

                     28                     29                     30
                      A                      A                      A
 Frequencies --    706.1143               728.6766               754.2935
 Red. masses --     15.2586                 3.5428                13.2758
 Frc consts  --      4.4824                 1.1083                 4.4503
 IR Inten    --      1.1619                54.2412                 0.4057

                     31                     32                     33
                      A                      A                      A
 Frequencies --    773.6169               833.7972               967.8813
 Red. masses --     12.2111                 1.2870                 2.3732
 Frc consts  --      4.3058                 0.5272                 1.3099
 IR Inten    --     16.0060                15.7900               231.6022

                     34                     35                     36
                      A                      A                      A
 Frequencies --    972.9049              1007.6173              1028.3522
 Red. masses --      4.3975                 3.3403                 1.6424
 Frc consts  --      2.4524                 1.9982                 1.0233
 IR Inten    --    222.2952                15.6405                29.6717

                     37                     38                     39
                      A                      A                      A
 Frequencies --   1128.0578              1133.3113              1143.5380
 Red. masses --     13.3379                 1.6559                 9.3211
 Frc consts  --     10.0000                 1.2531                 7.1815
 IR Inten    --     13.5936               118.4088               600.4245

                     40                     41                     42
                      A                      A                      A
 Frequencies --   1163.9909              1221.9373              1305.7938
 Red. masses --      1.5608                 1.9610                 3.4122
 Frc consts  --      1.2460                 1.7251                 3.4279
 IR Inten    --     19.4250                73.4144                 9.2049

                     43                     44                     45
                      A                      A                      A
 Frequencies --   1321.1381              1343.7776              1377.3296
 Red. masses --      1.6804                11.4569                 1.3033
 Frc consts  --      1.7281                12.1891                 1.4567
 IR Inten    --    151.7937               257.0786                93.9771

                     46                     47                     48
                      A                      A                      A
 Frequencies --   1389.9130              1428.4474              1437.5510
 Red. masses --      1.2824                12.0242                 1.0771
 Frc consts  --      1.4596                14.4556                 1.3115
 IR Inten    --    201.7301                33.0898                34.1387

                     49                     50                     51
                      A                      A                      A
 Frequencies --   1456.4220              1461.1282              1486.5985
 Red. masses --      1.1547                 1.0591                 1.0395
 Frc consts  --      1.4431                 1.3321                 1.3535
 IR Inten    --      6.9234                 6.2489                44.1657

                     52                     53                     54
                      A                      A                      A
 Frequencies --   1489.6624              1523.6323              1591.1785
 Red. masses --      1.0334                12.1628                 8.2557
 Frc consts  --      1.3512                16.6358                12.3153
 IR Inten    --     31.6787               711.4048              1091.7105

                     55                     56                     57
                      A                      A                      A
 Frequencies --   1622.6275              1634.2690              1688.1715
 Red. masses --     12.2810                 1.1168                11.8597
 Frc consts  --     19.0511                 1.7574                19.9140
 IR Inten    --     18.9026                79.9095               299.6712

                     58                     59                     60
                      A                      A                      A
 Frequencies --   1896.9914              3072.8441              3103.1615
 Red. masses --     10.4291                 1.0385                 1.0311
 Frc consts  --     22.1120                 5.7777                 5.8502
 IR Inten    --    360.6790                 3.3501                 6.3402

                     61                     62                     63
                      A                      A                      A
 Frequencies --   3151.5761              3197.9294              3204.6211
 Red. masses --      1.0968                 1.1045                 1.1083
 Frc consts  --      6.4183                 6.6552                 6.7057
 IR Inten    --      0.5992                 1.6267                 0.3867

                     64                     65                     66
                      A                      A                      A
 Frequencies --   3206.8358              3436.6469              3497.7749
 Red. masses --      1.1088                 1.0588                 1.0880
 Frc consts  --      6.7181                 7.3678                 7.8424
 IR Inten    --      2.0154               237.0167               127.4710

 - Thermochemistry -
 -------------------
 Temperature   298.150 Kelvin.  Pressure   1.00000 Atm.
 Atom     1 has atomic number  8 and mass  15.99491

 Molecular mass:   240.05219 amu.
 Principal axes and moments of inertia in atomic units:
                           1         2         3
     Eigenvalues --  2238.498355344.915066827.39162
           X            0.99993   0.01132   0.00233
           Y           -0.01128   0.99982  -0.01522
           Z           -0.00251   0.01519   0.99988
 This molecule is an asymmetric top.
 Rotational symmetry number  1.
 Warning -- assumption of classical behavior for rotation
           may cause significant error
 Rotational temperatures (Kelvin)      0.03869     0.01620     0.01269
 Rotational constants (GHZ):           0.80623     0.33766     0.26434
    1 imaginary frequencies ignored.
 Zero-point vibrational energy     436258.9 (Joules/Mol)
                                  104.26839 (Kcal/Mol)
 Warning -- explicit consideration of  23 degrees of freedom as
           vibrations may cause significant error
 Vibrational temperatures:     36.97    51.85    65.33    79.44   160.60
          (Kelvin)            182.43   189.00   193.72   241.85   292.47
                              307.64   378.57   415.75   439.12   501.79
                              512.34   514.88   586.19   614.17   664.21
                              693.37   746.73   839.85   896.04   982.23
                              990.86  1015.94  1048.40  1085.26  1113.06
                             1199.65  1392.57  1399.79  1449.74  1479.57
                             1623.02  1630.58  1645.30  1674.72  1758.10
                             1878.75  1900.82  1933.40  1981.67  1999.77
                             2055.22  2068.32  2095.47  2102.24  2138.88
                             2143.29  2192.17  2289.35  2334.60  2351.35
                             2428.90  2729.35  4421.14  4464.76  4534.42
                             4601.11  4610.73  4613.92  4944.57  5032.52

 Zero-point correction=                           0.166162 (Hartree/Particle)
 Thermal correction to Energy=                    0.181904
 Thermal correction to Enthalpy=                  0.182849
 Thermal correction to Gibbs Free Energy=         0.120885
 Sum of electronic and zero-point Energies=           -968.196761
 Sum of electronic and thermal Energies=              -968.181019
 Sum of electronic and thermal Enthalpies=            -968.180075
 Sum of electronic and thermal Free Energies=         -968.242038

                     E (Thermal)             CV                S
                      KCal/Mol        Cal/Mol-Kelvin    Cal/Mol-Kelvin
 Total                  114.147             55.143            130.412
 Electronic               0.000              0.000              0.000
 Translational            0.889              2.981             42.328
 Rotational               0.889              2.981             32.768
 Vibrational            112.369             49.181             55.316
 Vibration     1          0.593              1.985              6.137
 Vibration     2          0.594              1.982              5.466
 Vibration     3          0.595              1.979              5.008
 Vibration     4          0.596              1.975              4.621
 Vibration     5          0.607              1.940              3.240
 Vibration     6          0.611              1.926              2.994
 Vibration     7          0.612              1.922              2.926
 Vibration     8          0.613              1.919              2.879
 Vibration     9          0.625              1.882              2.457
 Vibration    10          0.639              1.835              2.103
 Vibration    11          0.644              1.820              2.011
 Vibration    12          0.670              1.740              1.641
 Vibration    13          0.686              1.694              1.480
 Vibration    14          0.696              1.664              1.388
 Vibration    15          0.726              1.578              1.172
 Vibration    16          0.732              1.563              1.139
 Vibration    17          0.733              1.559              1.131
 Vibration    18          0.772              1.454              0.936
 Vibration    19          0.789              1.412              0.869
 Vibration    20          0.819              1.335              0.761
 Vibration    21          0.838              1.290              0.705
 Vibration    22          0.874              1.208              0.612
 Vibration    23          0.941              1.067              0.479

 Optimization completed.
    -- Stationary point found.
 Normal termination of Gaussian 16 at Wed Jul 10 20:51:06 2024.
