 Gaussian 16, Revision B.01,
 Gaussian 16:  ES64L-G16RevB.01 20-Dec-2017

 ----------------------------------------------------------------------
 #P PBE1PBE/def2TZVP opt=(calcfc, ts, noeigentest) freq EmpiricalDisper
 sion=GD3 Int=(grid=99590) scrf=(iefpcm, solvent=water)
 ----------------------------------------------------------------------

 -------------------
 pfp-betaC_ester ts1
 -------------------
 Symbolic Z-matrix:
 Charge =  0 Multiplicity = 1

 SCF Done:  E(RPBE1PBE) =  -1090.76011564     A.U. after   12 cycles
 SCF Done:  E(RPBE1PBE) =  -1090.76372402     A.U. after   10 cycles
 SCF Done:  E(RPBE1PBE) =  -1090.76425555     A.U. after   10 cycles
 SCF Done:  E(RPBE1PBE) =  -1090.76444225     A.U. after   10 cycles
 SCF Done:  E(RPBE1PBE) =  -1090.76448229     A.U. after   10 cycles
 SCF Done:  E(RPBE1PBE) =  -1090.76450053     A.U. after    9 cycles
 SCF Done:  E(RPBE1PBE) =  -1090.76450603     A.U. after    8 cycles
 SCF Done:  E(RPBE1PBE) =  -1090.76450880     A.U. after    8 cycles
 SCF Done:  E(RPBE1PBE) =  -1090.76450958     A.U. after    7 cycles
 SCF Done:  E(RPBE1PBE) =  -1090.76450695     A.U. after    8 cycles
 SCF Done:  E(RPBE1PBE) =  -1090.76450973     A.U. after    8 cycles
 SCF Done:  E(RPBE1PBE) =  -1090.76450975     A.U. after    6 cycles
 SCF Done:  E(RPBE1PBE) =  -1090.76450977     A.U. after    6 cycles
 Optimization completed.
    -- Stationary point found.
 Normal termination of Gaussian 16 at Thu Aug 29 05:34:09 2024.

 ----------------------------------------------------------------------
 #P Geom=AllCheck Guess=TCheck SCRF=Check GenChk RPBE1PBE/def2TZVP Freq
 ----------------------------------------------------------------------

 Structure from the checkpoint file:  "/scratch/Gau-1920395.chk"
 -------------------
 pfp-betaC_ester ts1
 -------------------
 Charge =  0 Multiplicity = 1

                         Standard orientation:
 ---------------------------------------------------------------------
 Center     Atomic      Atomic             Coordinates (Angstroms)
 Number     Number       Type             X           Y           Z
 ---------------------------------------------------------------------
      1          1           0        1.721416   -2.088399    0.156599
      2          8           0        1.736079    0.379059    1.293946
      3          6           0        2.150538    0.117227    0.166707
      4          7           0        2.608385   -1.596291    0.109595
      5          1           0        3.022958   -1.819905   -0.790378
      6          6           0        3.471309   -1.981895    1.224130
      7          1           0        4.464777   -1.561893    1.078583
      8          1           0        3.037719   -1.575865    2.137184
      9          1           0        3.548697   -3.066336    1.302722
     10          6           0        3.356693    0.803512   -0.447099
     11          1           0        4.221377    0.561557    0.175866
     12          1           0        3.542429    0.402414   -1.446383
     13          8           0        1.131153    0.046365   -0.931729
     14          6           0       -0.151395    0.036635   -0.534161
     15          6           0       -0.887955   -1.143412   -0.522868
     16          6           0       -0.815465    1.203254   -0.164523
     17          6           0       -2.226083   -1.170627   -0.173438
     18          6           0       -2.152121    1.192085    0.193581
     19          6           0       -2.861910    0.003424    0.189273
     20          9           0       -0.291434   -2.289491   -0.855535
     21          9           0       -0.170610    2.362588   -0.172305
     22          9           0       -2.898871   -2.315283   -0.179837
     23          9           0       -2.761208    2.321299    0.536849
     24          9           0       -4.144592   -0.008953    0.527667
     25          6           0        3.164990    2.308801   -0.504453
     26          1           0        2.320494    2.571393   -1.143375
     27          1           0        2.973157    2.710045    0.492182
     28          1           0        4.059250    2.792162   -0.902338
 ---------------------------------------------------------------------

 SCF Done:  E(RPBE1PBE) =  -1090.76450977     A.U. after    1 cycles

 The electronic state is 1-A.
 Alpha  occ. eigenvalues --  -24.81703 -24.81682 -24.81587 -24.81487 -24.80890
 Alpha  occ. eigenvalues --  -19.23757 -19.15435 -14.44729 -10.35791 -10.34217
 Alpha  occ. eigenvalues --  -10.34056 -10.33956 -10.33681 -10.33518 -10.31131
 Alpha  occ. eigenvalues --  -10.25699 -10.22287 -10.20836  -1.30907  -1.30246
 Alpha  occ. eigenvalues --   -1.29592  -1.28830  -1.28428  -1.11532  -1.03282
 Alpha  occ. eigenvalues --   -0.97136  -0.92679  -0.81544  -0.80879  -0.79231
 Alpha  occ. eigenvalues --   -0.72477  -0.70156  -0.69528  -0.66986  -0.62952
 Alpha  occ. eigenvalues --   -0.62528  -0.61436  -0.58838  -0.57501  -0.56898
 Alpha  occ. eigenvalues --   -0.56491  -0.55445  -0.55143  -0.53519  -0.52704
 Alpha  occ. eigenvalues --   -0.51770  -0.50021  -0.49928  -0.49486  -0.48598
 Alpha  occ. eigenvalues --   -0.47911  -0.47323  -0.46938  -0.45205  -0.44491
 Alpha  occ. eigenvalues --   -0.43554  -0.42629  -0.41506  -0.41181  -0.40651
 Alpha  occ. eigenvalues --   -0.38013  -0.37281  -0.36946  -0.35699  -0.32855
 Alpha  occ. eigenvalues --   -0.29373  -0.27252  -0.26644  -0.26405
 Alpha virt. eigenvalues --   -0.01912  -0.01288  -0.01083   0.03897   0.06105
 Alpha virt. eigenvalues --    0.07248   0.07902   0.08137   0.09487   0.10517
 Alpha virt. eigenvalues --    0.11654   0.12004   0.12655   0.13347   0.14075

 Mulliken charges:
               1
     1  H    0.262277
     2  O   -0.496957
     3  C    0.255599
     4  N   -0.202850
     5  H    0.277614
     6  C   -0.323288
     7  H    0.160120
     8  H    0.158407
     9  H    0.164959
    10  C   -0.176411
    11  H    0.113966
    12  H    0.114042
    13  O   -0.320789
    14  C    0.121134
    15  C    0.163792
    16  C    0.180836
    17  C    0.140137
    18  C    0.148534
    19  C    0.162431
    20  F   -0.189915
    21  F   -0.175451
    22  F   -0.173659
    23  F   -0.174206
    24  F   -0.172174
    25  C   -0.404079
    26  H    0.126864
    27  H    0.121141
    28  H    0.137926
 Sum of Mulliken charges =  -0.00000

 Dipole moment (field-independent basis, Debye):
    X=              5.9421    Y=             -5.3098    Z=             -2.0927  Tot=              8.2391
 Quadrupole moment (field-independent basis, Debye-Ang):
   XX=            -86.5972   YY=            -98.4108   ZZ=           -103.6790
   XY=            -13.6621   XZ=             -1.6512   YZ=             -4.1724

  Exact polarizability: 206.900  -1.855 190.192 -10.416   5.717 129.245
 Approx polarizability: 219.085  -1.014 216.509 -17.938  13.130 149.961

 ******    1 imaginary frequencies (negative Signs) ******

                      1                      2                      3
                      A                      A                      A
 Frequencies --    -93.3297                32.1103                48.1020
 Red. masses --      4.5826                 5.4832                 4.1452
 Frc consts  --      0.0235                 0.0033                 0.0057
 IR Inten    --    196.5330                 9.9239                 0.1387

                      4                      5                      6
                      A                      A                      A
 Frequencies --     63.7001                80.8226                95.3245
 Red. masses --      4.0882                 2.8250                 2.6171
 Frc consts  --      0.0098                 0.0109                 0.0140
 IR Inten    --      8.5121                 6.9284                 1.3241

                      7                      8                      9
                      A                      A                      A
 Frequencies --    142.0022               142.5739               174.4268
 Red. masses --     10.3152                10.7229                 4.3112
 Frc consts  --      0.1226                 0.1284                 0.0773
 IR Inten    --      0.6501                 1.6128                 3.9525

                     10                     11                     12
                      A                      A                      A
 Frequencies --    181.9599               187.8136               201.3810
 Red. masses --      1.6879                 4.6867                 1.5975
 Frc consts  --      0.0329                 0.0974                 0.0382
 IR Inten    --      5.5423                 1.3709                 4.5096

                     13                     14                     15
                      A                      A                      A
 Frequencies --    226.3566               235.5561               273.3211
 Red. masses --      1.8569                 5.3576                12.1975
 Frc consts  --      0.0561                 0.1751                 0.5369
 IR Inten    --     11.9520                 0.9761                14.2580

                     16                     17                     18
                      A                      A                      A
 Frequencies --    276.5801               289.7164               305.9677
 Red. masses --     15.3370                 7.2286                 4.4181
 Frc consts  --      0.6912                 0.3575                 0.2437
 IR Inten    --      0.8782                54.8523                 3.1585

                     19                     20                     21
                      A                      A                      A
 Frequencies --    316.5920               346.0029               366.0746
 Red. masses --      8.9681                 3.9685                 5.8175
 Frc consts  --      0.5296                 0.2799                 0.4593
 IR Inten    --     20.5479                 4.7164                13.1805

                     22                     23                     24
                      A                      A                      A
 Frequencies --    377.5889               383.9421               409.5463
 Red. masses --      5.4452                12.4110                 8.5808
 Frc consts  --      0.4574                 1.0779                 0.8480
 IR Inten    --     10.5169                 0.2661                20.5887

                     25                     26                     27
                      A                      A                      A
 Frequencies --    454.2469               481.4529               564.2549
 Red. masses --     14.4056                 9.3440                 6.6711
 Frc consts  --      1.7513                 1.2761                 1.2514
 IR Inten    --      1.0523                 7.6390                32.8883

                     28                     29                     30
                      A                      A                      A
 Frequencies --    578.1634               601.1447               662.2567
 Red. masses --      7.2285                 6.5394                 3.0175
 Frc consts  --      1.4236                 1.3923                 0.7797
 IR Inten    --     63.7930                49.8379               169.3945

                     31                     32                     33
                      A                      A                      A
 Frequencies --    671.9646               687.4787               704.2109
 Red. masses --     10.7169                 6.3118                 9.0910
 Frc consts  --      2.8511                 1.7576                 2.6562
 IR Inten    --      4.5293               103.5097                11.7192

                     34                     35                     36
                      A                      A                      A
 Frequencies --    759.8107               782.5814               801.9204
 Red. masses --      1.9507                 6.6148                10.3906
 Frc consts  --      0.6635                 2.3869                 3.9369
 IR Inten    --     80.9591                20.1975                 8.4390

                     37                     38                     39
                      A                      A                      A
 Frequencies --    821.4279               945.3903              1015.1595
 Red. masses --      1.3360                 2.0165                 3.9805
 Frc consts  --      0.5311                 1.0618                 2.4169
 IR Inten    --     74.4887               176.8273               269.7798

                     40                     41                     42
                      A                      A                      A
 Frequencies --   1018.4211              1028.2934              1058.8397
 Red. masses --      1.7671                 8.9160                 1.4480
 Frc consts  --      1.0798                 5.5546                 0.9565
 IR Inten    --    248.3451               625.9390                48.5090

                     43                     44                     45
                      A                      A                      A
 Frequencies --   1072.2822              1090.3802              1100.3273
 Red. masses --      2.2605                 2.0657                 2.2447
 Frc consts  --      1.5314                 1.4470                 1.6013
 IR Inten    --     52.0486                29.1814                15.6449

                     46                     47                     48
                      A                      A                      A
 Frequencies --   1130.4631              1169.4528              1196.8211
 Red. masses --      2.0831                13.3084                 7.6321
 Frc consts  --      1.5685                10.7236                 6.4410
 IR Inten    --    125.4432                 1.4554                 0.9025

                     49                     50                     51
                      A                      A                      A
 Frequencies --   1261.8310              1304.6507              1330.3762
 Red. masses --      1.3506                 1.2001                11.8223
 Frc consts  --      1.2670                 1.2035                12.3282
 IR Inten    --     63.7158                36.3370                 3.4745

                     52                     53                     54
                      A                      A                      A
 Frequencies --   1341.6594              1344.4833              1368.7272
 Red. masses --      9.2191                 1.2947                 1.5115
 Frc consts  --      9.7774                 1.3788                 1.6683
 IR Inten    --      5.1458                14.9519                15.9603

                     55                     56                     57
                      A                      A                      A
 Frequencies --   1392.5994              1439.7886              1462.5306
 Red. masses --      1.2720                 1.1810                 1.0756
 Frc consts  --      1.4534                 1.4424                 1.3555
 IR Inten    --      5.7621                15.3249                 2.4860

                     58                     59                     60
                      A                      A                      A
 Frequencies --   1473.6726              1485.9729              1488.9478
 Red. masses --      1.0390                 1.0385                 1.0745
 Frc consts  --      1.3295                 1.3510                 1.4035
 IR Inten    --     13.1497                26.3277                12.4604

                     61                     62                     63
                      A                      A                      A
 Frequencies --   1491.6667              1513.9946              1552.3564
 Red. masses --      1.0430                10.9822                12.1255
 Frc consts  --      1.3673                14.8317                17.2161
 IR Inten    --     26.0583                41.5966               552.6027

                     64                     65                     66
                      A                      A                      A
 Frequencies --   1560.7163              1631.4332              1640.8266
 Red. masses --     12.0381                 1.5507                 2.6128
 Frc consts  --     17.2765                 2.4317                 4.1446
 IR Inten    --    491.9224               128.8025               411.9783

                     67                     68                     69
                      A                      A                      A
 Frequencies --   1684.7331              1703.9120              3059.5352
 Red. masses --     11.9744                11.9669                 1.0353
 Frc consts  --     20.0247                20.4703                 5.7097
 IR Inten    --      8.4201                 3.0040                38.9169

                     70                     71                     72
                      A                      A                      A
 Frequencies --   3067.7648              3077.5983              3112.9281
 Red. masses --      1.0597                 1.0332                 1.1031
 Frc consts  --      5.8762                 5.7656                 6.2980
 IR Inten    --     22.4174                31.1723                 9.4771

                     73                     74                     75
                      A                      A                      A
 Frequencies --   3135.4543              3144.7690              3160.7977
 Red. masses --      1.1020                 1.1034                 1.1052
 Frc consts  --      6.3834                 6.4292                 6.5055
 IR Inten    --     36.7222                44.3925                 8.6539

                     76                     77                     78
                      A                      A                      A
 Frequencies --   3176.0102              3508.2915              3583.5164
 Red. masses --      1.1058                 1.0512                 1.0953
 Frc consts  --      6.5717                 7.6231                 8.2870
 IR Inten    --      9.0824                41.5574                76.8052

 - Thermochemistry -
 -------------------
 Temperature   298.150 Kelvin.  Pressure   1.00000 Atm.
 Atom     1 has atomic number  1 and mass   1.00783

 Molecular mass:   271.06317 amu.
 Principal axes and moments of inertia in atomic units:
                           1         2         3
     Eigenvalues --  2818.812096083.350548110.05644
           X            0.99998  -0.00341   0.00519
           Y            0.00355   0.99961  -0.02762
           Z           -0.00509   0.02764   0.99960
 This molecule is an asymmetric top.
 Rotational symmetry number  1.
 Warning -- assumption of classical behavior for rotation
           may cause significant error
 Rotational temperatures (Kelvin)      0.03073     0.01424     0.01068
 Rotational constants (GHZ):           0.64025     0.29667     0.22253
    1 imaginary frequencies ignored.
 Zero-point vibrational energy     520709.0 (Joules/Mol)
                                  124.45244 (Kcal/Mol)
 Warning -- explicit consideration of  28 degrees of freedom as
           vibrations may cause significant error
 Vibrational temperatures:     46.20    69.21    91.65   116.29   137.15
          (Kelvin)            204.31   205.13   250.96   261.80   270.22
                              289.74   325.68   338.91   393.25   397.94
                              416.84   440.22   455.51   497.82   526.70
                              543.27   552.41   589.25   653.56   692.70
                              811.84   831.85   864.91   952.84   966.81
                              989.13  1013.20  1093.20  1125.96  1153.78
                             1181.85  1360.21  1460.59  1465.28  1479.48
                             1523.43  1542.77  1568.81  1583.13  1626.48
                             1682.58  1721.96  1815.49  1877.10  1914.11
                             1930.35  1934.41  1969.29  2003.64  2071.53
                             2104.26  2120.29  2137.98  2142.26  2146.18
                             2178.30  2233.49  2245.52  2347.27  2360.78
                             2423.96  2451.55  4401.99  4413.83  4427.98
                             4478.81  4511.22  4524.62  4547.68  4569.57
                             5047.65  5155.88

 Zero-point correction=                           0.198328 (Hartree/Particle)
 Thermal correction to Energy=                    0.215938
 Thermal correction to Enthalpy=                  0.216882
 Thermal correction to Gibbs Free Energy=         0.152504
 Sum of electronic and zero-point Energies=          -1090.566182
 Sum of electronic and thermal Energies=             -1090.548572
 Sum of electronic and thermal Enthalpies=           -1090.547628
 Sum of electronic and thermal Free Energies=        -1090.612006

                     E (Thermal)             CV                S
                      KCal/Mol        Cal/Mol-Kelvin    Cal/Mol-Kelvin
 Total                  135.503             63.838            135.495
 Electronic               0.000              0.000              0.000
 Translational            0.889              2.981             42.690
 Rotational               0.889              2.981             33.297
 Vibrational            133.726             57.877             59.508
 Vibration     1          0.594              1.983              5.695
 Vibration     2          0.595              1.978              4.894
 Vibration     3          0.597              1.972              4.339
 Vibration     4          0.600              1.962              3.871
 Vibration     5          0.603              1.953              3.548
 Vibration     6          0.615              1.911              2.777
 Vibration     7          0.616              1.911              2.769
 Vibration     8          0.627              1.874              2.387
 Vibration     9          0.630              1.864              2.308
 Vibration    10          0.632              1.857              2.249
 Vibration    11          0.638              1.838              2.120
 Vibration    12          0.650              1.801              1.908
 Vibration    13          0.655              1.786              1.836
 Vibration    14          0.676              1.723              1.575
 Vibration    15          0.678              1.717              1.555
 Vibration    16          0.686              1.693              1.476
 Vibration    17          0.696              1.662              1.384
 Vibration    18          0.703              1.642              1.328
 Vibration    19          0.724              1.583              1.184
 Vibration    20          0.739              1.542              1.096
 Vibration    21          0.748              1.518              1.049
 Vibration    22          0.753              1.504              1.024
 Vibration    23          0.774              1.449              0.928
 Vibration    24          0.813              1.352              0.783
 Vibration    25          0.838              1.291              0.706
 Vibration    26          0.920              1.109              0.515
 Vibration    27          0.935              1.079              0.489
 Vibration    28          0.959              1.029              0.448

 Optimization completed.
    -- Stationary point found.
 Normal termination of Gaussian 16 at Thu Aug 29 05:56:02 2024.
