 Gaussian 16, Revision B.01,
 Gaussian 16:  ES64L-G16RevB.01 20-Dec-2017

 ----------------------------------------------------------------------
 #P PBE1PBE/def2TZVP opt freq EmpiricalDispersion=GD3 Int=(grid=99590)
 scrf=(iefpcm, solvent=water)
 ----------------------------------------------------------------------

 -----------------------------
 pfp_ester_plus_BetaC-reactant
 -----------------------------
 Symbolic Z-matrix:
 Charge =  0 Multiplicity = 1

 SCF Done:  E(RPBE1PBE) =  -994.523585918     A.U. after   12 cycles
 SCF Done:  E(RPBE1PBE) =  -994.771474838     A.U. after   11 cycles
 SCF Done:  E(RPBE1PBE) =  -994.950139459     A.U. after   12 cycles
 SCF Done:  E(RPBE1PBE) =  -994.964605760     A.U. after   11 cycles
 SCF Done:  E(RPBE1PBE) =  -994.962946481     A.U. after   13 cycles
 SCF Done:  E(RPBE1PBE) =  -994.970375064     A.U. after   10 cycles
 SCF Done:  E(RPBE1PBE) =  -994.974446493     A.U. after   13 cycles
 SCF Done:  E(RPBE1PBE) =  -994.973354195     A.U. after   13 cycles
 SCF Done:  E(RPBE1PBE) =  -994.979468612     A.U. after   11 cycles
 SCF Done:  E(RPBE1PBE) =  -994.982232855     A.U. after   11 cycles
 SCF Done:  E(RPBE1PBE) =  -994.987276289     A.U. after   10 cycles
 SCF Done:  E(RPBE1PBE) =  -994.987321764     A.U. after   10 cycles
 SCF Done:  E(RPBE1PBE) =  -994.987312795     A.U. after    9 cycles
 SCF Done:  E(RPBE1PBE) =  -994.987321749     A.U. after    9 cycles
 SCF Done:  E(RPBE1PBE) =  -994.987329796     A.U. after    9 cycles
 SCF Done:  E(RPBE1PBE) =  -994.987327207     A.U. after   10 cycles
 SCF Done:  E(RPBE1PBE) =  -994.987339344     A.U. after    9 cycles
 SCF Done:  E(RPBE1PBE) =  -994.987339571     A.U. after    6 cycles
 SCF Done:  E(RPBE1PBE) =  -994.987339696     A.U. after    6 cycles
 Optimization completed.
    -- Stationary point found.
 Normal termination of Gaussian 16 at Mon Aug 19 18:44:56 2024.

 ----------------------------------------------------------------------
 #P Geom=AllCheck Guess=TCheck SCRF=Check GenChk RPBE1PBE/def2TZVP Freq
 ----------------------------------------------------------------------

 Structure from the checkpoint file:  "/scratch/Gau-4137908.chk"
 -----------------------------
 pfp_ester_plus_BetaC-reactant
 -----------------------------
 Charge =  0 Multiplicity = 1

                         Standard orientation:
 ---------------------------------------------------------------------
 Center     Atomic      Atomic             Coordinates (Angstroms)
 Number     Number       Type             X           Y           Z
 ---------------------------------------------------------------------
      1          8           0        2.142994   -0.336968    1.247555
      2          6           0        2.434140    0.026946    0.147230
      3          8           0        1.483933    0.323098   -0.800985
      4          6           0        0.176039    0.159888   -0.443504
      5          6           0       -0.388951   -1.102295   -0.341842
      6          6           0       -0.623968    1.272086   -0.234770
      7          6           0       -1.730193   -1.254730   -0.038727
      8          6           0       -1.968714    1.130076    0.063080
      9          6           0       -2.521171   -0.135460    0.162651
     10          9           0        0.361667   -2.176156   -0.538733
     11          9           0       -0.101775    2.486649   -0.319831
     12          9           0       -2.260424   -2.465267    0.056521
     13          9           0       -2.725912    2.200121    0.256084
     14          9           0       -3.805715   -0.276256    0.448847
     15          6           0        3.801439    0.231312   -0.416902
     16          6           0        4.902930   -0.045870    0.584068
     17          1           0        3.844050    1.256292   -0.797894
     18          1           0        3.881969   -0.411828   -1.299069
     19          1           0        5.877033    0.113963    0.120495
     20          1           0        4.823020    0.614727    1.448748
     21          1           0        4.858647   -1.075743    0.941459
 ---------------------------------------------------------------------

 SCF Done:  E(RPBE1PBE) =  -994.987339696     A.U. after    1 cycles

 The electronic state is 1-A.
 Alpha  occ. eigenvalues --  -24.82257 -24.82088 -24.82081 -24.82076 -24.82011
 Alpha  occ. eigenvalues --  -19.28890 -19.22026 -10.37507 -10.35087 -10.34875
 Alpha  occ. eigenvalues --  -10.34868 -10.34781 -10.34771 -10.32712 -10.24470
 Alpha  occ. eigenvalues --  -10.21799  -1.31577  -1.30962  -1.30411  -1.29599
 Alpha  occ. eigenvalues --   -1.29188  -1.17525  -1.08638  -0.93987  -0.84061
 Alpha  occ. eigenvalues --   -0.81832  -0.80889  -0.73153  -0.70501  -0.68267
 Alpha  occ. eigenvalues --   -0.64078  -0.63575  -0.62699  -0.59880  -0.58322
 Alpha  occ. eigenvalues --   -0.57479  -0.56592  -0.56186  -0.53905  -0.53366
 Alpha  occ. eigenvalues --   -0.53164  -0.51572  -0.50776  -0.50435  -0.49949
 Alpha  occ. eigenvalues --   -0.48068  -0.47503  -0.45904  -0.45546  -0.43924
 Alpha  occ. eigenvalues --   -0.43597  -0.41598  -0.40273  -0.38924  -0.38148
 Alpha  occ. eigenvalues --   -0.36954  -0.36231  -0.32201  -0.28276  -0.27979
 Alpha virt. eigenvalues --   -0.02968  -0.02101  -0.01733  -0.00674   0.04784
 Alpha virt. eigenvalues --    0.07285   0.08093   0.09960   0.10938   0.11974
 Alpha virt. eigenvalues --    0.12691   0.14658   0.14969   0.16543   0.16923

 Mulliken charges:
               1
     1  O   -0.342902
     2  C    0.318710
     3  O   -0.233086
     4  C    0.137347
     5  C    0.184440
     6  C    0.134072
     7  C    0.168432
     8  C    0.166267
     9  C    0.155785
    10  F   -0.168634
    11  F   -0.165882
    12  F   -0.167407
    13  F   -0.167706
    14  F   -0.164174
    15  C   -0.184298
    16  C   -0.382400
    17  H    0.151226
    18  H    0.151302
    19  H    0.143144
    20  H    0.132868
    21  H    0.132897
 Sum of Mulliken charges =  -0.00000

 Dipole moment (field-independent basis, Debye):
    X=              2.7353    Y=              0.7447    Z=             -2.2034  Tot=              3.5905
 Quadrupole moment (field-independent basis, Debye-Ang):
   XX=            -77.9535   YY=            -92.2437   ZZ=            -88.5065
   XY=              2.1695   XZ=             -3.9657   YZ=              1.2335

  Exact polarizability: 174.888   0.350 144.124  -8.926  -2.445 101.382
 Approx polarizability: 184.463   0.661 176.177 -15.568  -3.786 120.013

                      1                      2                      3
                      A                      A                      A
 Frequencies --     25.6227                54.3821                58.5031
 Red. masses --      3.9389                 6.7278                 4.1972
 Frc consts  --      0.0015                 0.0117                 0.0085
 IR Inten    --      0.4977                 2.3702                 2.5542

                      4                      5                      6
                      A                      A                      A
 Frequencies --     62.7953               137.8137               142.7335
 Red. masses --      2.8249                15.7698                12.8709
 Frc consts  --      0.0066                 0.1765                 0.1545
 IR Inten    --      2.1777                 0.0254                 0.0479

                      7                      8                      9
                      A                      A                      A
 Frequencies --    185.7693               211.1392               219.4333
 Red. masses --     13.7181                 1.1635                 5.3522
 Frc consts  --      0.2789                 0.0306                 0.1518
 IR Inten    --      0.0447                 0.6604                 2.4180

                     10                     11                     12
                      A                      A                      A
 Frequencies --    240.9751               274.4958               276.6420
 Red. masses --     10.3891                15.8403                14.9586
 Frc consts  --      0.3554                 0.7032                 0.6745
 IR Inten    --      1.5077                 0.3448                 1.6653

                     13                     14                     15
                      A                      A                      A
 Frequencies --    292.5491               306.3707               325.4970
 Red. masses --     10.3510                 7.7417                11.3356
 Frc consts  --      0.5220                 0.4281                 0.7076
 IR Inten    --      1.6804                16.4705                 5.7364

                     16                     17                     18
                      A                      A                      A
 Frequencies --    361.0740               385.5359               406.9232
 Red. masses --      8.3779                12.6631                11.9957
 Frc consts  --      0.6435                 1.1090                 1.1703
 IR Inten    --      2.8846                 0.1167                 4.0650

                     19                     20                     21
                      A                      A                      A
 Frequencies --    449.0842               489.0584               567.0633
 Red. masses --     15.3069                11.9858                 2.1845
 Frc consts  --      1.8188                 1.6890                 0.4139
 IR Inten    --      0.0275                 0.7410                 2.4064

                     22                     23                     24
                      A                      A                      A
 Frequencies --    588.1059               633.1670               640.3753
 Red. masses --     15.5289                 7.0599                11.0068
 Frc consts  --      3.1645                 1.6676                 2.6594
 IR Inten    --      1.1751                13.4552                 3.0027

                     25                     26                     27
                      A                      A                      A
 Frequencies --    675.4179               710.3662               756.2895
 Red. masses --     12.1414                 7.7225                 7.3751
 Frc consts  --      3.2634                 2.2960                 2.4854
 IR Inten    --      0.1102                 0.0852                 3.3223

                     28                     29                     30
                      A                      A                      A
 Frequencies --    800.1422               811.4473               897.6965
 Red. masses --      7.7799                 1.5531                 5.1921
 Frc consts  --      2.9347                 0.6025                 2.4652
 IR Inten    --      1.7294                19.6761                31.5298

                     31                     32                     33
                      A                      A                      A
 Frequencies --   1005.8615              1024.9733              1039.8981
 Red. masses --      4.0508                12.4009                 2.5118
 Frc consts  --      2.4147                 7.6759                 1.6003
 IR Inten    --     91.7666               441.6899               213.8882

                     34                     35                     36
                      A                      A                      A
 Frequencies --   1100.8925              1106.0109              1144.3985
 Red. masses --      3.2694                 1.7304                 3.0403
 Frc consts  --      2.3346                 1.2472                 2.3460
 IR Inten    --    314.9177                 0.6764               621.5767

                     37                     38                     39
                      A                      A                      A
 Frequencies --   1182.6059              1183.8382              1283.2593
 Red. masses --     12.0384                13.7045                 1.1695
 Frc consts  --      9.9197                11.3161                 1.1347
 IR Inten    --     23.3593                 4.0603                 0.1148

                     40                     41                     42
                      A                      A                      A
 Frequencies --   1337.9621              1342.4398              1386.4521
 Red. masses --     11.8066                10.0710                 1.7705
 Frc consts  --     12.4527                10.6933                 2.0052
 IR Inten    --      1.0554                 6.1608               102.8704

                     43                     44                     45
                      A                      A                      A
 Frequencies --   1408.9402              1431.6612              1476.4438
 Red. masses --      1.3281                 1.0833                 1.0347
 Frc consts  --      1.5533                 1.3082                 1.3289
 IR Inten    --      7.1025                34.9826                13.3975

                     46                     47                     48
                      A                      A                      A
 Frequencies --   1483.6530              1521.3497              1563.7564
 Red. masses --      1.0658                12.5915                12.3182
 Frc consts  --      1.3822                17.1706                17.7474
 IR Inten    --     28.8216                19.3677               554.2980

                     49                     50                     51
                      A                      A                      A
 Frequencies --   1565.2123              1697.4364              1704.5051
 Red. masses --     12.3017                12.0376                12.0314
 Frc consts  --     17.7567                20.4352                20.5950
 IR Inten    --    513.2903                 0.6768                 9.7387

                     52                     53                     54
                      A                      A                      A
 Frequencies --   1841.4615              3065.4497              3066.8140
 Red. masses --     12.2600                 1.0425                 1.0552
 Frc consts  --     24.4943                 5.7717                 5.8475
 IR Inten    --    361.9712                 7.4450                30.5664

                     55                     56                     57
                      A                      A                      A
 Frequencies --   3100.8973              3143.8806              3147.1836
 Red. masses --      1.0994                 1.1030                 1.1026
 Frc consts  --      6.2287                 6.4236                 6.4343
 IR Inten    --      0.1540                26.5813                22.2164

 - Thermochemistry -
 -------------------
 Temperature   298.150 Kelvin.  Pressure   1.00000 Atm.
 Atom     1 has atomic number  8 and mass  15.99491

 Molecular mass:   240.02097 amu.
 Principal axes and moments of inertia in atomic units:
                           1         2         3
     Eigenvalues --  1988.600425340.962386870.17679
           X            0.99998   0.00229   0.00504
           Y           -0.00228   0.99999  -0.00289
           Z           -0.00505   0.00288   0.99998
 This molecule is an asymmetric top.
 Rotational symmetry number  1.
 Warning -- assumption of classical behavior for rotation
           may cause significant error
 Rotational temperatures (Kelvin)      0.04356     0.01622     0.01261
 Rotational constants (GHZ):           0.90754     0.33791     0.26269
 Zero-point vibrational energy     342991.5 (Joules/Mol)
                                   81.97694 (Kcal/Mol)
 Warning -- explicit consideration of  22 degrees of freedom as
           vibrations may cause significant error
 Vibrational temperatures:     36.87    78.24    84.17    90.35   198.28
          (Kelvin)            205.36   267.28   303.78   315.72   346.71
                              394.94   398.03   420.91   440.80   468.32
                              519.51   554.70   585.47   646.13   703.65
                              815.88   846.15   910.99   921.36   971.78
                             1022.06  1088.13  1151.23  1167.49  1291.58
                             1447.21  1474.71  1496.18  1583.94  1591.30
                             1646.53  1701.51  1703.28  1846.32  1925.03
                             1931.47  1994.80  2027.15  2059.84  2124.27
                             2134.65  2188.88  2249.90  2251.99  2442.23
                             2452.40  2649.45  4410.50  4412.46  4461.50
                             4523.34  4528.10

 Zero-point correction=                           0.130639 (Hartree/Particle)
 Thermal correction to Energy=                    0.145340
 Thermal correction to Enthalpy=                  0.146284
 Thermal correction to Gibbs Free Energy=         0.087360
 Sum of electronic and zero-point Energies=           -994.856701
 Sum of electronic and thermal Energies=              -994.841999
 Sum of electronic and thermal Enthalpies=            -994.841055
 Sum of electronic and thermal Free Energies=         -994.899979

                     E (Thermal)             CV                S
                      KCal/Mol        Cal/Mol-Kelvin    Cal/Mol-Kelvin
 Total                   91.202             52.247            124.016
 Electronic               0.000              0.000              0.000
 Translational            0.889              2.981             42.328
 Rotational               0.889              2.981             32.656
 Vibrational             89.425             46.285             49.032
 Vibration     1          0.593              1.985              6.142
 Vibration     2          0.596              1.976              4.651
 Vibration     3          0.596              1.974              4.507
 Vibration     4          0.597              1.972              4.367
 Vibration     5          0.614              1.916              2.834
 Vibration     6          0.616              1.910              2.767
 Vibration     7          0.632              1.859              2.270
 Vibration     8          0.643              1.824              2.034
 Vibration     9          0.647              1.811              1.964
 Vibration    10          0.658              1.778              1.796
 Vibration    11          0.677              1.720              1.568
 Vibration    12          0.678              1.717              1.554
 Vibration    13          0.688              1.688              1.459
 Vibration    14          0.697              1.662              1.382
 Vibration    15          0.710              1.624              1.282
 Vibration    16          0.735              1.552              1.117
 Vibration    17          0.754              1.501              1.017
 Vibration    18          0.772              1.455              0.938
 Vibration    19          0.808              1.363              0.799
 Vibration    20          0.845              1.274              0.686
 Vibration    21          0.923              1.103              0.510
 Vibration    22          0.945              1.057              0.471

                           ! Non-Optimized Parameters !
 Normal termination of Gaussian 16 at Mon Aug 19 18:57:51 2024.
