 Gaussian 16, Revision B.01,
 Gaussian 16:  ES64L-G16RevB.01 20-Dec-2017

 ----------------------------------------------------------------------
 #P PBE1PBE/def2TZVP opt=(calcfc, ts, noeigentest) freq EmpiricalDisper
 sion=GD3 Int=(grid=99590) scrf=(iefpcm, solvent=water)
 ----------------------------------------------------------------------

 ----------------
 pfp-oh_ester ts1
 ----------------
 Symbolic Z-matrix:
 Charge =  0 Multiplicity = 1

 SCF Done:  E(RPBE1PBE) =  -1126.65113525     A.U. after   12 cycles
 SCF Done:  E(RPBE1PBE) =  -1126.65325772     A.U. after   11 cycles
 SCF Done:  E(RPBE1PBE) =  -1126.65331856     A.U. after   11 cycles
 SCF Done:  E(RPBE1PBE) =  -1126.65339247     A.U. after   10 cycles
 SCF Done:  E(RPBE1PBE) =  -1126.65342119     A.U. after    9 cycles
 SCF Done:  E(RPBE1PBE) =  -1126.65330281     A.U. after   10 cycles
 SCF Done:  E(RPBE1PBE) =  -1126.65181429     A.U. after   11 cycles
 SCF Done:  E(RPBE1PBE) =  -1126.65329811     A.U. after   10 cycles
 SCF Done:  E(RPBE1PBE) =  -1126.65339844     A.U. after    9 cycles
 SCF Done:  E(RPBE1PBE) =  -1126.65324105     A.U. after   10 cycles
 SCF Done:  E(RPBE1PBE) =  -1126.65340185     A.U. after   10 cycles
 SCF Done:  E(RPBE1PBE) =  -1126.65339037     A.U. after   10 cycles
 SCF Done:  E(RPBE1PBE) =  -1126.65341250     A.U. after   10 cycles
 SCF Done:  E(RPBE1PBE) =  -1126.65341223     A.U. after    9 cycles
 SCF Done:  E(RPBE1PBE) =  -1126.65341442     A.U. after    7 cycles
 SCF Done:  E(RPBE1PBE) =  -1126.65341555     A.U. after    7 cycles
 SCF Done:  E(RPBE1PBE) =  -1126.65341565     A.U. after    7 cycles
 SCF Done:  E(RPBE1PBE) =  -1126.65341479     A.U. after    7 cycles
 SCF Done:  E(RPBE1PBE) =  -1126.65341525     A.U. after    7 cycles
 Optimization completed.
    -- Stationary point found.
 Normal termination of Gaussian 16 at Wed Aug 28 23:02:01 2024.

 ----------------------------------------------------------------------
 #P Geom=AllCheck Guess=TCheck SCRF=Check GenChk RPBE1PBE/def2TZVP Freq
 ----------------------------------------------------------------------

 Structure from the checkpoint file:  "/scratch/Gau-344441.chk"
 ----------------
 pfp-oh_ester ts1
 ----------------
 Charge =  0 Multiplicity = 1

                         Standard orientation:
 ---------------------------------------------------------------------
 Center     Atomic      Atomic             Coordinates (Angstroms)
 Number     Number       Type             X           Y           Z
 ---------------------------------------------------------------------
      1          1           0        1.948350   -1.981253   -0.301621
      2          8           0        1.712295    0.151441    1.338402
      3          6           0        2.144124    0.139228    0.184940
      4          7           0        2.781189   -1.407439   -0.198968
      5          1           0        3.240391   -1.396471   -1.106357
      6          6           0        3.650706   -1.948010    0.849068
      7          1           0        4.603760   -1.423667    0.841610
      8          1           0        3.154054   -1.789783    1.804789
      9          1           0        3.822099   -3.011853    0.689660
     10          6           0        3.266409    1.066112   -0.272099
     11          1           0        4.175117    0.776747    0.269967
     12          1           0        3.440562    0.933858   -1.346272
     13          8           0        1.120002    0.191771   -0.920390
     14          6           0       -0.160471    0.090511   -0.527861
     15          6           0       -0.800296   -1.140667   -0.429154
     16          6           0       -0.921566    1.222283   -0.248380
     17          6           0       -2.134561   -1.251608   -0.083864
     18          6           0       -2.258493    1.129893    0.098505
     19          6           0       -2.868945   -0.109350    0.182438
     20          9           0       -0.114029   -2.258696   -0.678980
     21          9           0       -0.368619    2.425299   -0.324382
     22          9           0       -2.711637   -2.444632   -0.005881
     23          9           0       -2.960066    2.228485    0.352085
     24          9           0       -4.149991   -0.201722    0.513441
     25          8           0        2.892033    2.387408    0.030894
     26          1           0        3.590331    2.970585   -0.278360
 ---------------------------------------------------------------------

 SCF Done:  E(RPBE1PBE) =  -1126.65341525     A.U. after    1 cycles

 The electronic state is 1-A.
 Alpha  occ. eigenvalues --  -24.81962 -24.81737 -24.81622 -24.81509 -24.80892
 Alpha  occ. eigenvalues --  -19.23749 -19.21390 -19.15449 -14.46036 -10.36175
 Alpha  occ. eigenvalues --  -10.34265 -10.34106 -10.33990 -10.33749 -10.33543
 Alpha  occ. eigenvalues --  -10.31184 -10.27330 -10.26149  -1.30970  -1.30347
 Alpha  occ. eigenvalues --   -1.29682  -1.28911  -1.28456  -1.11710  -1.06305
 Alpha  occ. eigenvalues --   -1.03265  -0.98147  -0.92718  -0.80942  -0.80836
 Alpha  occ. eigenvalues --   -0.75768  -0.72489  -0.69609  -0.69258  -0.63349
 Alpha  occ. eigenvalues --   -0.62629  -0.62046  -0.59391  -0.57842  -0.57508
 Alpha  occ. eigenvalues --   -0.56861  -0.56357  -0.55450  -0.55109  -0.53444
 Alpha  occ. eigenvalues --   -0.52754  -0.51830  -0.49984  -0.49532  -0.49104
 Alpha  occ. eigenvalues --   -0.48285  -0.48077  -0.47440  -0.46972  -0.45945
 Alpha  occ. eigenvalues --   -0.44623  -0.43597  -0.42382  -0.41609  -0.41298
 Alpha  occ. eigenvalues --   -0.40578  -0.37538  -0.36927  -0.32790  -0.30371
 Alpha  occ. eigenvalues --   -0.29246  -0.27324  -0.27143  -0.26337
 Alpha virt. eigenvalues --   -0.02006  -0.01329  -0.01109   0.03714   0.04523
 Alpha virt. eigenvalues --    0.07307   0.07851   0.09049   0.09900   0.10684
 Alpha virt. eigenvalues --    0.11723   0.12110   0.12902   0.13710   0.14288

 Mulliken charges:
               1
     1  H    0.264704
     2  O   -0.513838
     3  C    0.304084
     4  N   -0.183458
     5  H    0.282416
     6  C   -0.321788
     7  H    0.162324
     8  H    0.162444
     9  H    0.168786
    10  C   -0.131852
    11  H    0.115044
    12  H    0.118869
    13  O   -0.330252
    14  C    0.142989
    15  C    0.192436
    16  C    0.143143
    17  C    0.135357
    18  C    0.143710
    19  C    0.164723
    20  F   -0.197865
    21  F   -0.171430
    22  F   -0.172973
    23  F   -0.173928
    24  F   -0.171651
    25  O   -0.470355
    26  H    0.338362
 Sum of Mulliken charges =  -0.00000

 Dipole moment (field-independent basis, Debye):
    X=              8.1749    Y=             -5.0898    Z=             -3.9960  Tot=             10.4261
 Quadrupole moment (field-independent basis, Debye-Ang):
   XX=            -70.9815   YY=            -96.4128   ZZ=           -102.6255
   XY=             -9.4711   XZ=             -7.2120   YZ=             -2.9644

  Exact polarizability: 197.014  -3.917 176.834 -11.759   3.200 117.261
 Approx polarizability: 209.089  -2.360 204.634 -19.802   6.617 137.410

 ******    1 imaginary frequencies (negative Signs) ******

                      1                      2                      3
                      A                      A                      A
 Frequencies --    -17.2910                43.2136                60.6865
 Red. masses --      6.2941                 2.6392                 9.6018
 Frc consts  --      0.0011                 0.0029                 0.0208
 IR Inten    --      6.6124                 4.2418                13.1823

                      4                      5                      6
                      A                      A                      A
 Frequencies --     74.2600                97.4826               139.1362
 Red. masses --      3.7473                 5.2672                11.6841
 Frc consts  --      0.0122                 0.0295                 0.1333
 IR Inten    --     12.4960                16.9605                14.5121

                      7                      8                      9
                      A                      A                      A
 Frequencies --    140.4661               146.7520               156.2866
 Red. masses --     10.2524                 2.8101                 1.2204
 Frc consts  --      0.1192                 0.0357                 0.0176
 IR Inten    --     12.0951                54.0002               156.4829

                     10                     11                     12
                      A                      A                      A
 Frequencies --    172.4128               184.5458               188.9059
 Red. masses --      2.5919                 5.8424                 2.2379
 Frc consts  --      0.0454                 0.1172                 0.0471
 IR Inten    --      2.8137                 5.2693                22.3661

                     13                     14                     15
                      A                      A                      A
 Frequencies --    233.5357               234.9707               275.3838
 Red. masses --      3.2652                10.3869                13.4748
 Frc consts  --      0.1049                 0.3379                 0.6021
 IR Inten    --     32.1964                 1.8739                10.4097

                     16                     17                     18
                      A                      A                      A
 Frequencies --    276.5681               293.6422               303.7905
 Red. masses --     14.6504                 7.9552                 5.0445
 Frc consts  --      0.6602                 0.4041                 0.2743
 IR Inten    --      1.5801                62.1262                13.3148

                     19                     20                     21
                      A                      A                      A
 Frequencies --    319.2505               350.8874               367.0282
 Red. masses --      7.9894                 6.0973                 5.5961
 Frc consts  --      0.4798                 0.4423                 0.4442
 IR Inten    --     40.3744                 0.3017                 9.8230

                     22                     23                     24
                      A                      A                      A
 Frequencies --    383.2043               386.6471               409.7882
 Red. masses --     10.9768                 8.3323                 7.8692
 Frc consts  --      0.9497                 0.7339                 0.7786
 IR Inten    --      3.5594                 8.5889                41.7480

                     25                     26                     27
                      A                      A                      A
 Frequencies --    454.2706               483.5052               567.5421
 Red. masses --     14.5243                10.2577                 8.5963
 Frc consts  --      1.7659                 1.4129                 1.6314
 IR Inten    --      1.3267                10.8164                36.7155

                     28                     29                     30
                      A                      A                      A
 Frequencies --    580.8449               605.5396               672.2791
 Red. masses --      8.8654                 6.4590                12.0086
 Frc consts  --      1.7623                 1.3954                 3.1977
 IR Inten    --     41.3425                62.2925                 2.3844

                     31                     32                     33
                      A                      A                      A
 Frequencies --    683.9382               701.8660               708.9273
 Red. masses --      3.9959                 5.4812                 5.8764
 Frc consts  --      1.1013                 1.5909                 1.7401
 IR Inten    --    219.0564               135.1966                58.7905

                     34                     35                     36
                      A                      A                      A
 Frequencies --    777.3138               799.9758               803.3048
 Red. masses --      4.0996                11.9979                 3.0883
 Frc consts  --      1.4594                 4.5239                 1.1742
 IR Inten    --     61.0638                 2.1646               130.5787

                     37                     38                     39
                      A                      A                      A
 Frequencies --    959.0528              1015.1433              1023.4191
 Red. masses --      1.9097                13.9944                 5.0582
 Frc consts  --      1.0349                 8.4969                 3.1215
 IR Inten    --     68.0448               453.1796               661.9345

                     40                     41                     42
                      A                      A                      A
 Frequencies --   1044.3637              1051.1150              1081.6955
 Red. masses --      2.0980                 1.7616                 2.4373
 Frc consts  --      1.3482                 1.1467                 1.6803
 IR Inten    --     37.5216                64.7754                75.0095

                     43                     44                     45
                      A                      A                      A
 Frequencies --   1124.0227              1141.1871              1168.7806
 Red. masses --      2.5513                 3.0737                13.3103
 Frc consts  --      1.8992                 2.3585                10.7128
 IR Inten    --     45.8401               121.3300                 0.3861

                     46                     47                     48
                      A                      A                      A
 Frequencies --   1194.5527              1236.7106              1281.7927
 Red. masses --      6.8970                 1.0985                 1.1891
 Frc consts  --      5.7985                 0.9899                 1.1511
 IR Inten    --      1.6414                67.6242                29.6679

                     49                     50                     51
                      A                      A                      A
 Frequencies --   1297.1703              1329.2610              1341.1062
 Red. masses --      1.2471                11.4638                 7.1574
 Frc consts  --      1.2364                11.9344                 7.5846
 IR Inten    --     94.9334                 2.8758                 4.3492

                     52                     53                     54
                      A                      A                      A
 Frequencies --   1344.8319              1437.6136              1457.2799
 Red. masses --      1.3473                 1.1780                 1.4430
 Frc consts  --      1.4356                 1.4344                 1.8056
 IR Inten    --     33.7050                22.7510                17.8526

                     55                     56                     57
                      A                      A                      A
 Frequencies --   1486.4484              1490.3388              1495.5050
 Red. masses --      1.0402                 1.0515                 1.1067
 Frc consts  --      1.3542                 1.3761                 1.4584
 IR Inten    --     24.5059                15.4547                 6.1245

                     58                     59                     60
                      A                      A                      A
 Frequencies --   1514.2267              1552.1219              1561.5045
 Red. masses --     10.2672                12.1755                12.0158
 Frc consts  --     13.8702                17.2818                17.2619
 IR Inten    --     46.9991               549.9382               487.4451

                     61                     62                     63
                      A                      A                      A
 Frequencies --   1626.4630              1637.2891              1684.5040
 Red. masses --      2.7582                 1.4829                12.0351
 Frc consts  --      4.2990                 2.3421                20.1208
 IR Inten    --    259.2653               274.4207                 6.7757

                     64                     65                     66
                      A                      A                      A
 Frequencies --   1704.3408              3018.4528              3064.4181
 Red. masses --     11.9402                 1.0556                 1.1073
 Frc consts  --     20.4351                 5.6663                 6.1265
 IR Inten    --      1.8732                65.1589                50.7900

                     67                     68                     69
                      A                      A                      A
 Frequencies --   3085.2681              3172.0484              3185.1280
 Red. masses --      1.0328                 1.1057                 1.1064
 Frc consts  --      5.7925                 6.5552                 6.6131
 IR Inten    --     27.5289                 5.5064                 7.5884

                     70                     71                     72
                      A                      A                      A
 Frequencies --   3494.0323              3563.5294              3864.3637
 Red. masses --      1.0519                 1.0954                 1.0666
 Frc consts  --      7.5664                 8.1956                 9.3843
 IR Inten    --     59.0748               116.9977                93.1766

 - Thermochemistry -
 -------------------
 Temperature   298.150 Kelvin.  Pressure   1.00000 Atm.
 Atom     1 has atomic number  1 and mass   1.00783

 Molecular mass:   273.04243 amu.
 Principal axes and moments of inertia in atomic units:
                           1         2         3
     Eigenvalues --  2786.728646087.222278264.09044
           X            0.99985  -0.01688   0.00441
           Y            0.01694   0.99978  -0.01264
           Z           -0.00419   0.01272   0.99991
 This molecule is an asymmetric top.
 Rotational symmetry number  1.
 Warning -- assumption of classical behavior for rotation
           may cause significant error
 Rotational temperatures (Kelvin)      0.03108     0.01423     0.01048
 Rotational constants (GHZ):           0.64762     0.29648     0.21838
    1 imaginary frequencies ignored.
 Zero-point vibrational energy     459409.3 (Joules/Mol)
                                  109.80145 (Kcal/Mol)
 Warning -- explicit consideration of  28 degrees of freedom as
           vibrations may cause significant error
 Vibrational temperatures:     62.17    87.31   106.84   140.26   200.19
          (Kelvin)            202.10   211.14   224.86   248.06   265.52
                              271.79   336.01   338.07   396.22   397.92
                              422.49   437.09   459.33   504.85   528.07
                              551.35   556.30   589.59   653.59   695.66
                              816.57   835.71   871.24   967.26   984.03
                             1009.83  1019.99  1118.38  1150.99  1155.78
                             1379.86  1460.56  1472.47  1502.61  1512.32
                             1556.32  1617.22  1641.91  1681.61  1718.69
                             1779.35  1844.21  1866.34  1912.51  1929.55
                             1934.91  2068.41  2096.70  2138.67  2144.27
                             2151.70  2178.63  2233.16  2246.66  2340.12
                             2355.69  2423.63  2452.17  4342.88  4409.01
                             4439.01  4563.87  4582.69  5027.13  5127.12
                             5559.96

 Zero-point correction=                           0.174980 (Hartree/Particle)
 Thermal correction to Energy=                    0.192289
 Thermal correction to Enthalpy=                  0.193233
 Thermal correction to Gibbs Free Energy=         0.130064
 Sum of electronic and zero-point Energies=          -1126.478435
 Sum of electronic and thermal Energies=             -1126.461127
 Sum of electronic and thermal Enthalpies=           -1126.460182
 Sum of electronic and thermal Free Energies=        -1126.523351

                     E (Thermal)             CV                S
                      KCal/Mol        Cal/Mol-Kelvin    Cal/Mol-Kelvin
 Total                  120.663             62.506            132.949
 Electronic               0.000              0.000              0.000
 Translational            0.889              2.981             42.712
 Rotational               0.889              2.981             33.305
 Vibrational            118.885             56.544             56.932
 Vibration     1          0.595              1.980              5.106
 Vibration     2          0.597              1.973              4.435
 Vibration     3          0.599              1.966              4.037
 Vibration     4          0.603              1.951              3.504
 Vibration     5          0.615              1.914              2.816
 Vibration     6          0.615              1.913              2.798
 Vibration     7          0.617              1.906              2.714
 Vibration     8          0.620              1.896              2.594
 Vibration     9          0.626              1.876              2.409
 Vibration    10          0.631              1.861              2.282
 Vibration    11          0.633              1.855              2.239
 Vibration    12          0.654              1.790              1.852
 Vibration    13          0.655              1.787              1.841
 Vibration    14          0.677              1.719              1.562
 Vibration    15          0.678              1.717              1.555
 Vibration    16          0.688              1.686              1.453
 Vibration    17          0.695              1.667              1.396
 Vibration    18          0.705              1.637              1.314
 Vibration    19          0.728              1.573              1.162
 Vibration    20          0.740              1.540              1.092
 Vibration    21          0.752              1.506              1.026
 Vibration    22          0.755              1.499              1.013
 Vibration    23          0.774              1.449              0.927
 Vibration    24          0.813              1.351              0.783
 Vibration    25          0.840              1.287              0.701
 Vibration    26          0.923              1.101              0.509
 Vibration    27          0.938              1.073              0.484
 Vibration    28          0.964              1.020              0.440

 Optimization completed.
    -- Stationary point found.
 Normal termination of Gaussian 16 at Wed Aug 28 23:21:57 2024.
