 Gaussian 16, Revision B.01,
 Gaussian 16:  ES64L-G16RevB.01 20-Dec-2017

 ----------------------------------------------------------------------
 #P PBE1PBE/def2TZVP opt freq EmpiricalDispersion=GD3 Int=(grid=99590)
 scrf=(iefpcm, solvent=water)
 ----------------------------------------------------------------------

 ----------------------
 pfp_ester-cf3 reactant
 ----------------------
 Symbolic Z-matrix:
 Charge =  0 Multiplicity = 1

 SCF Done:  E(RPBE1PBE) =  -1253.25161964     A.U. after   12 cycles
 SCF Done:  E(RPBE1PBE) =  -1253.27831411     A.U. after   11 cycles
 SCF Done:  E(RPBE1PBE) =  -1253.28054250     A.U. after   10 cycles
 SCF Done:  E(RPBE1PBE) =  -1253.28045541     A.U. after   10 cycles
 SCF Done:  E(RPBE1PBE) =  -1253.28056010     A.U. after   10 cycles
 SCF Done:  E(RPBE1PBE) =  -1253.28100038     A.U. after   10 cycles
 SCF Done:  E(RPBE1PBE) =  -1253.28111039     A.U. after   10 cycles
 SCF Done:  E(RPBE1PBE) =  -1253.28118274     A.U. after   10 cycles
 SCF Done:  E(RPBE1PBE) =  -1253.28119379     A.U. after    9 cycles
 SCF Done:  E(RPBE1PBE) =  -1253.28120598     A.U. after    9 cycles
 SCF Done:  E(RPBE1PBE) =  -1253.28139621     A.U. after    8 cycles
 SCF Done:  E(RPBE1PBE) =  -1253.28120143     A.U. after   12 cycles
 SCF Done:  E(RPBE1PBE) =  -1253.28085309     A.U. after   10 cycles
 SCF Done:  E(RPBE1PBE) =  -1253.28111109     A.U. after   11 cycles
 SCF Done:  E(RPBE1PBE) =  -1253.28140322     A.U. after    8 cycles
 SCF Done:  E(RPBE1PBE) =  -1253.28142336     A.U. after    9 cycles
 SCF Done:  E(RPBE1PBE) =  -1253.28142909     A.U. after    8 cycles
 SCF Done:  E(RPBE1PBE) =  -1253.28142929     A.U. after    7 cycles
 SCF Done:  E(RPBE1PBE) =  -1253.28142943     A.U. after    6 cycles
 Optimization completed.
    -- Stationary point found.
 Normal termination of Gaussian 16 at Mon Aug 19 19:01:43 2024.

 ----------------------------------------------------------------------
 #P Geom=AllCheck Guess=TCheck SCRF=Check GenChk RPBE1PBE/def2TZVP Freq
 ----------------------------------------------------------------------

 Structure from the checkpoint file:  "/scratch/Gau-518088.chk"
 ----------------------
 pfp_ester-cf3 reactant
 ----------------------
 Charge =  0 Multiplicity = 1

                         Standard orientation:
 ---------------------------------------------------------------------
 Center     Atomic      Atomic             Coordinates (Angstroms)
 Number     Number       Type             X           Y           Z
 ---------------------------------------------------------------------
      1          8           0        1.627037    0.560162    1.527616
      2          6           0        1.924101    0.134136    0.461275
      3          6           0        3.378632   -0.059627   -0.025638
      4          8           0        1.089954   -0.250332   -0.516781
      5          6           0       -0.260672   -0.124607   -0.282932
      6          6           0       -0.864247    1.121765   -0.246194
      7          6           0       -1.032593   -1.266337   -0.148478
      8          6           0       -2.232570    1.229799   -0.072018
      9          6           0       -2.403046   -1.164421    0.021083
     10          6           0       -3.000967    0.084333    0.060018
     11          9           0       -0.129496    2.213462   -0.380839
     12          9           0       -0.463181   -2.459011   -0.179851
     13          9           0       -2.807568    2.420681   -0.035912
     14          9           0       -3.140275   -2.255524    0.148713
     15          9           0       -4.308520    0.183840    0.222867
     16          9           0        3.609641    0.696012   -1.096703
     17          9           0        3.595905   -1.330898   -0.352144
     18          9           0        4.222631    0.286006    0.930606
 ---------------------------------------------------------------------

 SCF Done:  E(RPBE1PBE) =  -1253.28142943     A.U. after    1 cycles

 The electronic state is 1-A.
 Alpha  occ. eigenvalues --  -24.83143 -24.83118 -24.83112 -24.82796 -24.82653
 Alpha  occ. eigenvalues --  -24.82629 -24.82478 -24.82461 -19.32117 -19.25373
 Alpha  occ. eigenvalues --  -10.50501 -10.41054 -10.35740 -10.35723 -10.35688
 Alpha  occ. eigenvalues --  -10.35364 -10.35339 -10.33928  -1.38477  -1.32094
 Alpha  occ. eigenvalues --   -1.31567  -1.31058  -1.30177  -1.29681  -1.29321
 Alpha  occ. eigenvalues --   -1.29126  -1.20814  -1.12156  -0.94859  -0.84943
 Alpha  occ. eigenvalues --   -0.82509  -0.79520  -0.73462  -0.71199  -0.68710
 Alpha  occ. eigenvalues --   -0.65672  -0.64855  -0.64395  -0.64078  -0.63357
 Alpha  occ. eigenvalues --   -0.60743  -0.58940  -0.58085  -0.57414  -0.56645
 Alpha  occ. eigenvalues --   -0.55274  -0.53920  -0.53225  -0.52340  -0.51872
 Alpha  occ. eigenvalues --   -0.51078  -0.50941  -0.50438  -0.50076  -0.48610
 Alpha  occ. eigenvalues --   -0.48054  -0.47882  -0.47257  -0.45753  -0.45699
 Alpha  occ. eigenvalues --   -0.45437  -0.43594  -0.42320  -0.39510  -0.38322
 Alpha  occ. eigenvalues --   -0.35255  -0.29175  -0.28531
 Alpha virt. eigenvalues --   -0.05405  -0.03208  -0.02668  -0.02388   0.06845
 Alpha virt. eigenvalues --    0.07013   0.09363   0.12691   0.13044   0.14009
 Alpha virt. eigenvalues --    0.15833   0.16244   0.17567   0.17780   0.18624

 Mulliken charges:
               1
     1  O   -0.273516
     2  C    0.280814
     3  C    0.436452
     4  O   -0.200886
     5  C    0.135991
     6  C    0.193752
     7  C    0.137031
     8  C    0.175258
     9  C    0.174152
    10  C    0.158903
    11  F   -0.162573
    12  F   -0.158581
    13  F   -0.162466
    14  F   -0.162893
    15  F   -0.158795
    16  F   -0.138956
    17  F   -0.138854
    18  F   -0.134832
 Sum of Mulliken charges =  -0.00000

 Dipole moment (field-independent basis, Debye):
    X=             -0.8973    Y=             -0.4913    Z=             -1.2395  Tot=              1.6071
 Quadrupole moment (field-independent basis, Debye-Ang):
   XX=           -100.6038   YY=            -99.0454   ZZ=            -95.4397
   XY=             -0.6523   XZ=             -0.5603   YZ=             -1.6093

  Exact polarizability: 155.214   0.933 132.802  -2.447   2.261  86.236
 Approx polarizability: 169.726   0.388 165.710  -6.706   4.075 105.363

                      1                      2                      3
                      A                      A                      A
 Frequencies --     20.7212                38.3825                50.2541
 Red. masses --     18.4388                17.3252                16.2470
 Frc consts  --      0.0047                 0.0150                 0.0242
 IR Inten    --      0.0119                 0.1041                 1.2540

                      4                      5                      6
                      A                      A                      A
 Frequencies --     56.9642               138.3113               140.7011
 Red. masses --     16.7343                17.9265                17.9104
 Frc consts  --      0.0320                 0.2021                 0.2089
 IR Inten    --      0.5076                 0.2309                 0.1961

                      7                      8                      9
                      A                      A                      A
 Frequencies --    159.8470               187.2597               219.2325
 Red. masses --     17.0747                18.1870                17.0198
 Frc consts  --      0.2570                 0.3758                 0.4820
 IR Inten    --      0.4945                 0.4517                 4.1576

                     10                     11                     12
                      A                      A                      A
 Frequencies --    236.6357               275.1527               276.1760
 Red. masses --     14.1684                18.3477                18.7466
 Frc consts  --      0.4674                 0.8184                 0.8424
 IR Inten    --      3.6152                 1.0886                 0.0072

                     13                     14                     15
                      A                      A                      A
 Frequencies --    302.6331               309.1470               341.7105
 Red. masses --     17.9193                17.1104                16.5749
 Frc consts  --      0.9669                 0.9635                 1.1403
 IR Inten    --      1.0248                10.5494                 4.4734

                     16                     17                     18
                      A                      A                      A
 Frequencies --    348.1801               383.9180               401.5541
 Red. masses --     17.2360                12.6728                13.5353
 Frc consts  --      1.2311                 1.1005                 1.2859
 IR Inten    --      1.0655                 0.0507                 2.1289

                     19                     20                     21
                      A                      A                      A
 Frequencies --    420.9990               449.5697               476.0272
 Red. masses --     15.7715                15.9421                15.6555
 Frc consts  --      1.6470                 1.8984                 2.0902
 IR Inten    --      1.9550                 0.0282                 9.6540

                     22                     23                     24
                      A                      A                      A
 Frequencies --    525.0397               562.1344               592.4454
 Red. masses --     17.5917                17.1304                17.2494
 Frc consts  --      2.8572                 3.1893                 3.5671
 IR Inten    --     10.1812                11.5645                 0.1700

                     25                     26                     27
                      A                      A                      A
 Frequencies --    644.2404               662.6051               676.2450
 Red. masses --     15.7653                12.7173                12.2122
 Frc consts  --      3.8552                 3.2897                 3.2904
 IR Inten    --     15.9748                20.6486                 0.1200

                     28                     29                     30
                      A                      A                      A
 Frequencies --    733.9399               769.3427               781.0537
 Red. masses --     12.7661                15.0920                13.1290
 Frc consts  --      4.0516                 5.2630                 4.7189
 IR Inten    --     10.9359                11.8720                19.3048

                     31                     32                     33
                      A                      A                      A
 Frequencies --    802.8653               895.1401              1012.6750
 Red. masses --     12.9429                15.0900                13.8934
 Frc consts  --      4.9155                 7.1240                 8.3946
 IR Inten    --      3.4352                35.0235               173.0026

                     34                     35                     36
                      A                      A                      A
 Frequencies --   1029.7257              1133.2662              1180.5480
 Red. masses --     14.2893                13.5545                13.6837
 Frc consts  --      8.9270                10.2565                11.2363
 IR Inten    --    437.6493               893.6803                79.1414

                     37                     38                     39
                      A                      A                      A
 Frequencies --   1184.0097              1190.5014              1235.3799
 Red. masses --     13.1663                13.7425                13.1429
 Frc consts  --     10.8749                11.4756                11.8179
 IR Inten    --    398.3833                 2.3428               511.8809

                     40                     41                     42
                      A                      A                      A
 Frequencies --   1338.6401              1343.8332              1360.6712
 Red. masses --     12.0829                12.7270                12.5177
 Frc consts  --     12.7571                13.5415                13.6547
 IR Inten    --     15.0057                22.1585                83.7417

                     43                     44                     45
                      A                      A                      A
 Frequencies --   1523.8639              1565.0942              1569.7605
 Red. masses --     12.6969                12.3615                12.3176
 Frc consts  --     17.3717                17.8403                17.8831
 IR Inten    --     28.1259               481.8647               611.8722

                     46                     47                     48
                      A                      A                      A
 Frequencies --   1701.5623              1703.4741              1888.6942
 Red. masses --     12.0414                12.0350                13.2136
 Frc consts  --     20.5411                20.5763                27.7712
 IR Inten    --      2.5252                 8.3587               368.3117

 - Thermochemistry -
 -------------------
 Temperature   298.150 Kelvin.  Pressure   1.00000 Atm.
 Atom     1 has atomic number  8 and mass  15.99491

 Molecular mass:   279.97706 amu.
 Principal axes and moments of inertia in atomic units:
                           1         2         3
     Eigenvalues --  2245.972147575.167879159.54167
           X            1.00000   0.00048   0.00129
           Y           -0.00048   1.00000   0.00184
           Z           -0.00129  -0.00184   1.00000
 This molecule is an asymmetric top.
 Rotational symmetry number  1.
 Warning -- assumption of classical behavior for rotation
           may cause significant error
 Rotational temperatures (Kelvin)      0.03856     0.01143     0.00946
 Rotational constants (GHZ):           0.80355     0.23824     0.19703
 Zero-point vibrational energy     208390.2 (Joules/Mol)
                                   49.80646 (Kcal/Mol)
 Warning -- explicit consideration of  24 degrees of freedom as
           vibrations may cause significant error
 Vibrational temperatures:     29.81    55.22    72.30    81.96   199.00
          (Kelvin)            202.44   229.98   269.42   315.43   340.47
                              395.88   397.36   435.42   444.79   491.65
                              500.95   552.37   577.75   605.72   646.83
                              684.90   755.42   808.79   852.40   926.92
                              953.34   972.97  1055.98  1106.91  1123.76
                             1155.14  1287.91  1457.01  1481.55  1630.52
                             1698.55  1703.53  1712.87  1777.44  1926.00
                             1933.48  1957.70  2192.50  2251.82  2258.54
                             2448.17  2450.92  2717.41

 Zero-point correction=                           0.079372 (Hartree/Particle)
 Thermal correction to Energy=                    0.094623
 Thermal correction to Enthalpy=                  0.095567
 Thermal correction to Gibbs Free Energy=         0.034479
 Sum of electronic and zero-point Energies=          -1253.202058
 Sum of electronic and thermal Energies=             -1253.186807
 Sum of electronic and thermal Enthalpies=           -1253.185862
 Sum of electronic and thermal Free Energies=        -1253.246950

                     E (Thermal)             CV                S
                      KCal/Mol        Cal/Mol-Kelvin    Cal/Mol-Kelvin
 Total                   59.377             53.871            128.569
 Electronic               0.000              0.000              0.000
 Translational            0.889              2.981             42.787
 Rotational               0.889              2.981             33.410
 Vibrational             57.599             47.909             52.372
 Vibration     1          0.593              1.986              6.564
 Vibration     2          0.594              1.982              5.341
 Vibration     3          0.595              1.977              4.807
 Vibration     4          0.596              1.975              4.560
 Vibration     5          0.614              1.915              2.827
 Vibration     6          0.615              1.913              2.794
 Vibration     7          0.622              1.892              2.552
 Vibration     8          0.632              1.857              2.255
 Vibration     9          0.647              1.812              1.965
 Vibration    10          0.656              1.785              1.828
 Vibration    11          0.677              1.719              1.564
 Vibration    12          0.678              1.717              1.557
 Vibration    13          0.694              1.669              1.402
 Vibration    14          0.698              1.656              1.367
 Vibration    15          0.721              1.592              1.204
 Vibration    16          0.726              1.579              1.174
 Vibration    17          0.753              1.504              1.024
 Vibration    18          0.767              1.467              0.957
 Vibration    19          0.784              1.425              0.889
 Vibration    20          0.808              1.362              0.797
 Vibration    21          0.833              1.303              0.721
 Vibration    22          0.880              1.195              0.598
 Vibration    23          0.918              1.113              0.520
 Vibration    24          0.950              1.048              0.463

 Optimization completed.
    -- Stationary point found.
 Normal termination of Gaussian 16 at Mon Aug 19 19:15:27 2024.
