 Gaussian 16, Revision B.01,
 Gaussian 16:  ES64L-G16RevB.01 20-Dec-2017

 ----------------------------------------------------------------------
 #P PBE1PBE/def2TZVP opt freq EmpiricalDispersion=GD3 Int=(grid=99590)
 scrf=(iefpcm, solvent=water)
 ----------------------------------------------------------------------

 --------------------
 pfp-ch2F_ester inter
 --------------------
 Symbolic Z-matrix:
 Charge =  0 Multiplicity = 1

 SCF Done:  E(RPBE1PBE) =  -1150.66469948     A.U. after   12 cycles
 SCF Done:  E(RPBE1PBE) =  -1150.66621351     A.U. after   11 cycles
 SCF Done:  E(RPBE1PBE) =  -1150.66547586     A.U. after   10 cycles
 SCF Done:  E(RPBE1PBE) =  -1150.66722335     A.U. after   10 cycles
 SCF Done:  E(RPBE1PBE) =  -1150.66747887     A.U. after   10 cycles
 SCF Done:  E(RPBE1PBE) =  -1150.66761533     A.U. after   10 cycles
 SCF Done:  E(RPBE1PBE) =  -1150.66768816     A.U. after    9 cycles
 SCF Done:  E(RPBE1PBE) =  -1150.66772540     A.U. after    9 cycles
 SCF Done:  E(RPBE1PBE) =  -1150.66774046     A.U. after    9 cycles
 SCF Done:  E(RPBE1PBE) =  -1150.66775901     A.U. after    9 cycles
 SCF Done:  E(RPBE1PBE) =  -1150.66814658     A.U. after    9 cycles
 SCF Done:  E(RPBE1PBE) =  -1150.66817877     A.U. after    9 cycles
 SCF Done:  E(RPBE1PBE) =  -1150.66751707     A.U. after   10 cycles
 SCF Done:  E(RPBE1PBE) =  -1150.66816140     A.U. after    9 cycles
 SCF Done:  E(RPBE1PBE) =  -1150.66818173     A.U. after    5 cycles
 SCF Done:  E(RPBE1PBE) =  -1150.66818679     A.U. after    8 cycles
 SCF Done:  E(RPBE1PBE) =  -1150.66818738     A.U. after    7 cycles
 SCF Done:  E(RPBE1PBE) =  -1150.66818741     A.U. after    7 cycles
 SCF Done:  E(RPBE1PBE) =  -1150.66818748     A.U. after    6 cycles
 Optimization completed.
    -- Stationary point found.
 Normal termination of Gaussian 16 at Thu Aug 29 17:31:10 2024.

 ----------------------------------------------------------------------
 #P Geom=AllCheck Guess=TCheck SCRF=Check GenChk RPBE1PBE/def2TZVP Freq
 ----------------------------------------------------------------------

 Structure from the checkpoint file:  "/scratch/Gau-127929.chk"
 --------------------
 pfp-ch2F_ester inter
 --------------------
 Charge =  0 Multiplicity = 1

                         Standard orientation:
 ---------------------------------------------------------------------
 Center     Atomic      Atomic             Coordinates (Angstroms)
 Number     Number       Type             X           Y           Z
 ---------------------------------------------------------------------
      1          1           0        2.230077   -1.726040   -0.810467
      2          8           0        1.726956   -0.211483    1.303493
      3          6           0        2.148110    0.148160    0.199875
      4          7           0        2.972390   -1.072945   -0.568418
      5          1           0        3.377375   -0.752096   -1.445554
      6          6           0        3.969078   -1.728602    0.288131
      7          1           0        4.819610   -1.066649    0.432844
      8          1           0        3.495127   -1.936107    1.245189
      9          1           0        4.304254   -2.654997   -0.174775
     10          6           0        3.078939    1.353626    0.078177
     11          8           0        1.108846    0.379586   -0.883636
     12          6           0       -0.160635    0.152215   -0.517782
     13          6           0       -0.660067   -1.128197   -0.304641
     14          6           0       -1.048569    1.214178   -0.369853
     15          6           0       -1.980932   -1.349746    0.039252
     16          6           0       -2.376114    1.008615   -0.036991
     17          6           0       -2.844658   -0.276639    0.173723
     18          9           0        0.143601   -2.182472   -0.453842
     19          9           0       -0.621858    2.457853   -0.555377
     20          9           0       -2.424868   -2.585765    0.235201
     21          9           0       -3.201667    2.041113    0.089961
     22          9           0       -4.114961   -0.479351    0.498761
     23          9           0        2.468036    2.435353    0.677239
     24          1           0        3.283356    1.607743   -0.964227
     25          1           0        4.011608    1.151706    0.610230
 ---------------------------------------------------------------------

 SCF Done:  E(RPBE1PBE) =  -1150.66818748     A.U. after    1 cycles

 The electronic state is 1-A.
 Alpha  occ. eigenvalues --  -24.81763 -24.81674 -24.81561 -24.81495 -24.80980
 Alpha  occ. eigenvalues --  -24.76620 -19.23993 -19.15605 -14.47417 -10.36692
 Alpha  occ. eigenvalues --  -10.34178 -10.34034 -10.33964 -10.33668 -10.33534
 Alpha  occ. eigenvalues --  -10.31212 -10.30093 -10.26682  -1.30896  -1.30267
 Alpha  occ. eigenvalues --   -1.29615  -1.28846  -1.28445  -1.23924  -1.11806
 Alpha  occ. eigenvalues --   -1.03915  -0.99144  -0.92677  -0.80970  -0.80901
 Alpha  occ. eigenvalues --   -0.76799  -0.73402  -0.69659  -0.69307  -0.63871
 Alpha  occ. eigenvalues --   -0.62631  -0.62264  -0.59847  -0.59009  -0.57514
 Alpha  occ. eigenvalues --   -0.57131  -0.56471  -0.55363  -0.55297  -0.53353
 Alpha  occ. eigenvalues --   -0.52685  -0.51887  -0.51112  -0.50471  -0.49882
 Alpha  occ. eigenvalues --   -0.49511  -0.48758  -0.48026  -0.47454  -0.46945
 Alpha  occ. eigenvalues --   -0.44664  -0.44343  -0.43235  -0.42178  -0.41513
 Alpha  occ. eigenvalues --   -0.40919  -0.39078  -0.37226  -0.36809  -0.33353
 Alpha  occ. eigenvalues --   -0.29601  -0.27736  -0.27208  -0.26055
 Alpha virt. eigenvalues --   -0.01913  -0.01249  -0.01047   0.03425   0.05972
 Alpha virt. eigenvalues --    0.07221   0.07792   0.08907   0.09788   0.11337
 Alpha virt. eigenvalues --    0.12064   0.12312   0.12733   0.13621   0.15302

 Mulliken charges:
               1
     1  H    0.275876
     2  O   -0.510545
     3  C    0.219357
     4  N   -0.153522
     5  H    0.289340
     6  C   -0.323223
     7  H    0.166074
     8  H    0.167419
     9  H    0.173995
    10  C   -0.011979
    11  O   -0.336354
    12  C    0.125085
    13  C    0.225363
    14  C    0.137864
    15  C    0.135148
    16  C    0.142749
    17  C    0.163979
    18  F   -0.199305
    19  F   -0.175274
    20  F   -0.173619
    21  F   -0.174372
    22  F   -0.172467
    23  F   -0.243029
    24  H    0.125237
    25  H    0.126202
 Sum of Mulliken charges =  -0.00000

 Dipole moment (field-independent basis, Debye):
    X=              8.2750    Y=             -4.9091    Z=             -5.1800  Tot=             10.9274
 Quadrupole moment (field-independent basis, Debye-Ang):
   XX=            -70.7013   YY=           -104.1291   ZZ=           -100.2810
   XY=            -13.3691   XZ=            -10.1905   YZ=              1.6736

  Exact polarizability: 195.608  -4.315 166.759 -11.911  -2.601 113.413
 Approx polarizability: 206.922  -3.181 195.598 -19.200  -4.437 133.672

                      1                      2                      3
                      A                      A                      A
 Frequencies --     26.0282                40.7510                45.8493
 Red. masses --      4.4678                 3.6238                 9.0603
 Frc consts  --      0.0018                 0.0035                 0.0112
 IR Inten    --      5.3431                 3.0778                10.6054

                      4                      5                      6
                      A                      A                      A
 Frequencies --     82.0574                99.3190               139.6416
 Red. masses --      5.1757                 5.6921                15.5552
 Frc consts  --      0.0205                 0.0331                 0.1787
 IR Inten    --      3.9867                 3.6777                 0.1162

                      7                      8                      9
                      A                      A                      A
 Frequencies --    145.8739               177.7453               182.2582
 Red. masses --     11.7292                 2.7944                 5.9250
 Frc consts  --      0.1471                 0.0520                 0.1160
 IR Inten    --      1.0463                 7.1942                 8.9087

                     10                     11                     12
                      A                      A                      A
 Frequencies --    187.8500               202.7139               234.7503
 Red. masses --     10.1673                 1.3738                10.1143
 Frc consts  --      0.2114                 0.0333                 0.3284
 IR Inten    --      3.1838                15.2206                 2.0287

                     13                     14                     15
                      A                      A                      A
 Frequencies --    264.3619               276.5688               277.7091
 Red. masses --      5.1999                13.9642                15.4010
 Frc consts  --      0.2141                 0.6293                 0.6998
 IR Inten    --      7.2091                 2.4888                 4.8680

                     16                     17                     18
                      A                      A                      A
 Frequencies --    302.7252               309.8699               323.5524
 Red. masses --      6.2454                12.5630                 6.9270
 Frc consts  --      0.3372                 0.7107                 0.4273
 IR Inten    --     42.8368                10.3610                63.8125

                     19                     20                     21
                      A                      A                      A
 Frequencies --    349.9769               372.6897               382.9121
 Red. masses --      5.7807                 4.9490                11.8759
 Frc consts  --      0.4172                 0.4050                 1.0259
 IR Inten    --      3.3091                13.6351                 3.7796

                     22                     23                     24
                      A                      A                      A
 Frequencies --    388.8571               409.5076               451.8912
 Red. masses --      7.8306                 6.6923                14.5120
 Frc consts  --      0.6976                 0.6612                 1.7460
 IR Inten    --     25.5212                99.6110                 1.2515

                     25                     26                     27
                      A                      A                      A
 Frequencies --    486.6303               571.1444               581.9638
 Red. masses --     10.4453                 8.9859                 9.3678
 Frc consts  --      1.4574                 1.7270                 1.8693
 IR Inten    --     18.5179                38.4219                26.3109

                     28                     29                     30
                      A                      A                      A
 Frequencies --    607.5734               669.3500               686.0749
 Red. masses --      5.8453                12.1293                 6.4558
 Frc consts  --      1.2713                 3.2018                 1.7904
 IR Inten    --     57.4716                 0.5343               162.1031

                     31                     32                     33
                      A                      A                      A
 Frequencies --    705.7918               718.2033               769.4466
 Red. masses --      8.3451                 2.8169                 6.6384
 Frc consts  --      2.4493                 0.8561                 2.3156
 IR Inten    --     63.1505               169.4828                 9.7301

                     34                     35                     36
                      A                      A                      A
 Frequencies --    804.1719               827.8474               963.5324
 Red. masses --      8.7747                 3.1277                 1.9156
 Frc consts  --      3.3434                 1.2629                 1.0478
 IR Inten    --     16.0725               151.6597                56.7919

                     37                     38                     39
                      A                      A                      A
 Frequencies --   1015.2162              1024.3751              1043.9439
 Red. masses --     13.8844                 4.5174                 2.3830
 Frc consts  --      8.4313                 2.7929                 1.5301
 IR Inten    --    459.4152               588.2733                69.2757

                     40                     41                     42
                      A                      A                      A
 Frequencies --   1050.5756              1092.8620              1110.4691
 Red. masses --      2.4839                 2.3789                 2.5816
 Frc consts  --      1.6153                 1.6740                 1.8756
 IR Inten    --     68.4639               158.0714                 1.2252

                     43                     44                     45
                      A                      A                      A
 Frequencies --   1152.1323              1168.8778              1199.1446
 Red. masses --      2.1954                13.3976                 6.5479
 Frc consts  --      1.7170                10.7849                 5.5475
 IR Inten    --    118.5713                 1.0902                 0.7895

                     46                     47                     48
                      A                      A                      A
 Frequencies --   1284.3361              1314.4174              1332.0930
 Red. masses --      1.1160                 1.3253                10.3880
 Frc consts  --      1.0846                 1.3491                10.8605
 IR Inten    --      7.7410               123.8161                 2.6444

                     49                     50                     51
                      A                      A                      A
 Frequencies --   1340.3233              1348.5325              1419.1654
 Red. masses --      5.9543                 1.4045                 1.3354
 Frc consts  --      6.3023                 1.5049                 1.5846
 IR Inten    --     10.1915                45.7093                10.4051

                     52                     53                     54
                      A                      A                      A
 Frequencies --   1440.4921              1483.6794              1489.2306
 Red. masses --      1.1825                 1.0823                 1.0416
 Frc consts  --      1.4457                 1.4037                 1.3610
 IR Inten    --     16.0248                10.9912                28.5962

                     55                     56                     57
                      A                      A                      A
 Frequencies --   1490.4633              1516.6901              1553.0748
 Red. masses --      1.0429                11.3320                11.9711
 Frc consts  --      1.3650                15.3585                17.0125
 IR Inten    --     15.7691                45.8186               553.9557

                     58                     59                     60
                      A                      A                      A
 Frequencies --   1560.1359              1612.7070              1629.9611
 Red. masses --     11.9276                 5.6485                 1.1632
 Frc consts  --     17.1051                 8.6555                 1.8208
 IR Inten    --    457.9773               413.9534               149.8633

                     61                     62                     63
                      A                      A                      A
 Frequencies --   1685.3400              1704.7337              3070.5239
 Red. masses --     11.9587                11.9078                 1.0556
 Frc consts  --     20.0128                20.3890                 5.8637
 IR Inten    --      6.9300                 2.8086                33.6720

                     64                     65                     66
                      A                      A                      A
 Frequencies --   3093.0281              3133.9919              3183.4649
 Red. masses --      1.0322                 1.1106                 1.1065
 Frc consts  --      5.8179                 6.4268                 6.6070
 IR Inten    --     19.7911                27.7524                 4.3015

                     67                     68                     69
                      A                      A                      A
 Frequencies --   3194.3558              3482.7019              3549.4940
 Red. masses --      1.1068                 1.0522                 1.0951
 Frc consts  --      6.6539                 7.5192                 8.1291
 IR Inten    --      5.4912                60.3422               114.5336

 - Thermochemistry -
 -------------------
 Temperature   298.150 Kelvin.  Pressure   1.00000 Atm.
 Atom     1 has atomic number  1 and mass   1.00783

 Molecular mass:   275.03810 amu.
 Principal axes and moments of inertia in atomic units:
                           1         2         3
     Eigenvalues --  2767.434356101.833868280.92687
           X            0.99960  -0.02826  -0.00057
           Y            0.02825   0.99960  -0.00217
           Z            0.00063   0.00215   1.00000
 This molecule is an asymmetric top.
 Rotational symmetry number  1.
 Warning -- assumption of classical behavior for rotation
           may cause significant error
 Rotational temperatures (Kelvin)      0.03130     0.01419     0.01046
 Rotational constants (GHZ):           0.65214     0.29577     0.21794
 Zero-point vibrational energy     429685.0 (Joules/Mol)
                                  102.69718 (Kcal/Mol)
 Warning -- explicit consideration of  28 degrees of freedom as
           vibrations may cause significant error
 Vibrational temperatures:     37.45    58.63    65.97   118.06   142.90
          (Kelvin)            200.91   209.88   255.74   262.23   270.27
                              291.66   337.75   380.36   397.92   399.56
                              435.55   445.83   465.52   503.54   536.22
                              550.93   559.48   589.19   650.17   700.15
                              821.75   837.32   874.16   963.05   987.11
                             1015.48  1033.33  1107.06  1157.02  1191.09
                             1386.31  1460.67  1473.85  1502.00  1511.54
                             1572.38  1597.72  1657.66  1681.75  1725.30
                             1847.87  1891.15  1916.58  1928.43  1940.24
                             2041.86  2072.55  2134.68  2142.67  2144.44
                             2182.18  2234.53  2244.69  2320.33  2345.15
                             2424.83  2452.73  4417.80  4450.18  4509.12
                             4580.30  4595.97  5010.83  5106.93

 Zero-point correction=                           0.163658 (Hartree/Particle)
 Thermal correction to Energy=                    0.181024
 Thermal correction to Enthalpy=                  0.181968
 Thermal correction to Gibbs Free Energy=         0.117460
 Sum of electronic and zero-point Energies=          -1150.504529
 Sum of electronic and thermal Energies=             -1150.487163
 Sum of electronic and thermal Enthalpies=           -1150.486219
 Sum of electronic and thermal Free Energies=        -1150.550728

                     E (Thermal)             CV                S
                      KCal/Mol        Cal/Mol-Kelvin    Cal/Mol-Kelvin
 Total                  113.594             62.146            135.770
 Electronic               0.000              0.000              0.000
 Translational            0.889              2.981             42.734
 Rotational               0.889              2.981             33.302
 Vibrational            111.817             56.184             59.733
 Vibration     1          0.593              1.985              6.111
 Vibration     2          0.594              1.981              5.222
 Vibration     3          0.595              1.979              4.989
 Vibration     4          0.600              1.961              3.841
 Vibration     5          0.604              1.950              3.468
 Vibration     6          0.615              1.914              2.809
 Vibration     7          0.617              1.907              2.725
 Vibration     8          0.628              1.870              2.352
 Vibration     9          0.630              1.864              2.305
 Vibration    10          0.633              1.857              2.249
 Vibration    11          0.639              1.836              2.108
 Vibration    12          0.655              1.788              1.842
 Vibration    13          0.671              1.738              1.633
 Vibration    14          0.678              1.717              1.555
 Vibration    15          0.679              1.715              1.548
 Vibration    16          0.694              1.669              1.402
 Vibration    17          0.699              1.655              1.363
 Vibration    18          0.708              1.628              1.292
 Vibration    19          0.727              1.575              1.166
 Vibration    20          0.744              1.528              1.069
 Vibration    21          0.752              1.507              1.028
 Vibration    22          0.757              1.494              1.005
 Vibration    23          0.774              1.450              0.928
 Vibration    24          0.811              1.357              0.790
 Vibration    25          0.843              1.280              0.692
 Vibration    26          0.927              1.094              0.502
 Vibration    27          0.939              1.070              0.482
 Vibration    28          0.966              1.016              0.437

 Optimization completed.
    -- Stationary point found.
 Normal termination of Gaussian 16 at Thu Aug 29 17:50:41 2024.
