 Gaussian 16, Revision B.01,
 Gaussian 16:  ES64L-G16RevB.01 20-Dec-2017

 ----------------------------------------------------------------------
 #P PBE1PBE/def2TZVP opt freq EmpiricalDispersion=GD3 Int=(grid=99590)
 scrf=(iefpcm, solvent=water)
 ----------------------------------------------------------------------

 ----------------------------
 ch2F-methylacetamide product
 ----------------------------
 Symbolic Z-matrix:
 Charge =  0 Multiplicity = 1

 SCF Done:  E(RPBE1PBE) =  -347.504998751     A.U. after   12 cycles
 SCF Done:  E(RPBE1PBE) =  -347.521891628     A.U. after   11 cycles
 SCF Done:  E(RPBE1PBE) =  -347.525795376     A.U. after   11 cycles
 SCF Done:  E(RPBE1PBE) =  -347.525296022     A.U. after   11 cycles
 SCF Done:  E(RPBE1PBE) =  -347.528885574     A.U. after   11 cycles
 SCF Done:  E(RPBE1PBE) =  -347.529253694     A.U. after   10 cycles
 SCF Done:  E(RPBE1PBE) =  -347.529420988     A.U. after   10 cycles
 SCF Done:  E(RPBE1PBE) =  -347.529831180     A.U. after   11 cycles
 SCF Done:  E(RPBE1PBE) =  -347.530456129     A.U. after   11 cycles
 SCF Done:  E(RPBE1PBE) =  -347.531274367     A.U. after   11 cycles
 SCF Done:  E(RPBE1PBE) =  -347.532000471     A.U. after    7 cycles
 SCF Done:  E(RPBE1PBE) =  -347.532003462     A.U. after    8 cycles
 SCF Done:  E(RPBE1PBE) =  -347.532007614     A.U. after    8 cycles
 SCF Done:  E(RPBE1PBE) =  -347.532011089     A.U. after    9 cycles
 SCF Done:  E(RPBE1PBE) =  -347.532009366     A.U. after    8 cycles
 SCF Done:  E(RPBE1PBE) =  -347.532013115     A.U. after    9 cycles
 SCF Done:  E(RPBE1PBE) =  -347.532013116     A.U. after    7 cycles
 SCF Done:  E(RPBE1PBE) =  -347.532013117     A.U. after    6 cycles
 SCF Done:  E(RPBE1PBE) =  -347.532013116     A.U. after    6 cycles
 Optimization completed.
    -- Stationary point found.
 Normal termination of Gaussian 16 at Thu Aug 29 20:32:36 2024.

 ----------------------------------------------------------------------
 #P Geom=AllCheck Guess=TCheck SCRF=Check GenChk RPBE1PBE/def2TZVP Freq
 ----------------------------------------------------------------------

 Structure from the checkpoint file:  "/scratch/Gau-2009534.chk"
 ----------------------------
 ch2F-methylacetamide product
 ----------------------------
 Charge =  0 Multiplicity = 1

                         Standard orientation:
 ---------------------------------------------------------------------
 Center     Atomic      Atomic             Coordinates (Angstroms)
 Number     Number       Type             X           Y           Z
 ---------------------------------------------------------------------
      1          6           0       -0.000604    0.121260   -0.036963
      2          8           0       -0.002280    1.341852   -0.065422
      3          7           0        1.112580   -0.619585    0.031132
      4          1           0        1.034439   -1.620064    0.103423
      5          6           0       -1.285140   -0.688852   -0.125499
      6          6           0        2.428142   -0.024329    0.043902
      7          1           0        2.616539    0.504697    0.981500
      8          1           0        3.170595   -0.811272   -0.072166
      9          1           0        2.531267    0.686286   -0.777626
     10          9           0       -2.367636    0.111166    0.148868
     11          1           0       -1.276968   -1.522040    0.582238
     12          1           0       -1.391362   -1.084287   -1.140365
 ---------------------------------------------------------------------

 SCF Done:  E(RPBE1PBE) =  -347.532013116     A.U. after    1 cycles

 The electronic state is 1-A.
 Alpha  occ. eigenvalues --  -24.76812 -19.18192 -14.41838 -10.32960 -10.30759
 Alpha  occ. eigenvalues --  -10.25284  -1.24280  -1.07907  -0.96282  -0.78149
 Alpha  occ. eigenvalues --   -0.71068  -0.61435  -0.56074  -0.53081  -0.52845
 Alpha  occ. eigenvalues --   -0.48190  -0.47001  -0.45886  -0.41057  -0.40671
 Alpha  occ. eigenvalues --   -0.38872  -0.36474  -0.28680  -0.28139
 Alpha virt. eigenvalues --    0.01574   0.04555   0.06617   0.08058   0.10649
 Alpha virt. eigenvalues --    0.12578   0.13410   0.14736   0.16733   0.17807
 Alpha virt. eigenvalues --    0.19146   0.21983   0.24093   0.25925   0.27064

 Mulliken charges:
               1
     1  C    0.280172
     2  O   -0.456908
     3  N   -0.272308
     4  H    0.265362
     5  C   -0.023518
     6  C   -0.285384
     7  H    0.144254
     8  H    0.155533
     9  H    0.145457
    10  F   -0.237786
    11  H    0.141954
    12  H    0.143172
 Sum of Mulliken charges =   0.00000

 Dipole moment (field-independent basis, Debye):
    X=              3.2950    Y=             -6.0586    Z=             -0.2307  Tot=              6.9005
 Quadrupole moment (field-independent basis, Debye-Ang):
   XX=            -33.9965   YY=            -35.5599   ZZ=            -34.2847
   XY=              0.7227   XZ=              1.0199   YZ=              0.0513

  Exact polarizability:  67.278  -2.554  62.590   1.347  -0.248  45.737
 Approx polarizability:  65.568  -5.667  72.285   0.891  -0.431  49.710

                      1                      2                      3
                      A                      A                      A
 Frequencies --     42.9405                63.6381               147.5388
 Red. masses --      3.2761                 1.0533                 3.1375
 Frc consts  --      0.0036                 0.0025                 0.0402
 IR Inten    --      0.8815                 4.0124                 7.3728

                      4                      5                      6
                      A                      A                      A
 Frequencies --    213.2401               317.5743               422.0107
 Red. masses --      3.8623                 7.3796                 1.3287
 Frc consts  --      0.1035                 0.4385                 0.1394
 IR Inten    --      2.8567                13.9078               116.2780

                      7                      8                      9
                      A                      A                      A
 Frequencies --    440.4390               606.6694               713.9316
 Red. masses --      4.1488                 2.3556                 4.4250
 Frc consts  --      0.4742                 0.5108                 1.3288
 IR Inten    --     17.6937                 2.3323                24.5335

                     10                     11                     12
                      A                      A                      A
 Frequencies --    918.0354              1022.8095              1058.3733
 Red. masses --      3.0949                 2.2295                 4.9790
 Frc consts  --      1.5368                 1.3742                 3.2860
 IR Inten    --      1.9865                 8.5353                88.6418

                     13                     14                     15
                      A                      A                      A
 Frequencies --   1139.7506              1148.2632              1187.7635
 Red. masses --      3.2400                 1.4515                 1.8080
 Frc consts  --      2.4798                 1.1276                 1.5029
 IR Inten    --     84.9538                 5.5148                 5.2704

                     16                     17                     18
                      A                      A                      A
 Frequencies --   1271.2707              1286.8595              1411.5330
 Red. masses --      1.2068                 1.4516                 1.3850
 Frc consts  --      1.1491                 1.4163                 1.6258
 IR Inten    --     16.5767                60.7730                20.3086

                     19                     20                     21
                      A                      A                      A
 Frequencies --   1443.7212              1465.6787              1472.5483
 Red. masses --      1.1779                 1.0488                 1.0815
 Frc consts  --      1.4465                 1.3275                 1.3818
 IR Inten    --     18.3828                17.0580                17.1611

                     22                     23                     24
                      A                      A                      A
 Frequencies --   1492.9091              1578.9390              1751.7038
 Red. masses --      1.0678                 2.3318                 9.4592
 Frc consts  --      1.4021                 3.4251                17.1011
 IR Inten    --      6.6451               290.0034               534.2747

                     25                     26                     27
                      A                      A                      A
 Frequencies --   3055.2764              3062.0832              3117.3325
 Red. masses --      1.0370                 1.0568                 1.1074
 Frc consts  --      5.7034                 5.8380                 6.3404
 IR Inten    --     43.4476                20.4883                13.7748

                     28                     29                     30
                      A                      A                      A
 Frequencies --   3120.9203              3168.3472              3655.3912
 Red. masses --      1.1020                 1.1030                 1.0786
 Frc consts  --      6.3241                 6.5236                 8.4918
 IR Inten    --     27.0097                12.6716                81.4244

 - Thermochemistry -
 -------------------
 Temperature   298.150 Kelvin.  Pressure   1.00000 Atm.
 Atom     1 has atomic number  6 and mass  12.00000

 Molecular mass:    91.04334 amu.
 Principal axes and moments of inertia in atomic units:
                           1         2         3
     Eigenvalues --   184.34690 877.323471033.34692
           X            0.99992   0.01089   0.00684
           Y           -0.01093   0.99993   0.00501
           Z           -0.00679  -0.00509   0.99996
 This molecule is an asymmetric top.
 Rotational symmetry number  1.
 Rotational temperatures (Kelvin)      0.46984     0.09873     0.08382
 Rotational constants (GHZ):           9.78992     2.05710     1.74650
 Zero-point vibrational energy     250004.5 (Joules/Mol)
                                   59.75251 (Kcal/Mol)
 Warning -- explicit consideration of   8 degrees of freedom as
           vibrations may cause significant error
 Vibrational temperatures:     61.78    91.56   212.28   306.81   456.92
          (Kelvin)            607.18   633.69   872.86  1027.19  1320.85
                             1471.59  1522.76  1639.85  1652.09  1708.93
                             1829.07  1851.50  2030.88  2077.19  2108.78
                             2118.67  2147.96  2271.74  2520.31  4395.86
                             4405.65  4485.15  4490.31  4558.55  5259.29

 Zero-point correction=                           0.095222 (Hartree/Particle)
 Thermal correction to Energy=                    0.102353
 Thermal correction to Enthalpy=                  0.103298
 Thermal correction to Gibbs Free Energy=         0.063113
 Sum of electronic and zero-point Energies=           -347.436791
 Sum of electronic and thermal Energies=              -347.429660
 Sum of electronic and thermal Enthalpies=            -347.428716
 Sum of electronic and thermal Free Energies=         -347.468900

                     E (Thermal)             CV                S
                      KCal/Mol        Cal/Mol-Kelvin    Cal/Mol-Kelvin
 Total                   64.228             22.594             84.575
 Electronic               0.000              0.000              0.000
 Translational            0.889              2.981             39.438
 Rotational               0.889              2.981             26.616
 Vibrational             62.450             16.632             18.520
 Vibration     1          0.595              1.980              5.119
 Vibration     2          0.597              1.972              4.341
 Vibration     3          0.617              1.905              2.704
 Vibration     4          0.644              1.821              2.016
 Vibration     5          0.704              1.640              1.323
 Vibration     6          0.784              1.422              0.885
 Vibration     7          0.800              1.382              0.825
 Vibration     8          0.965              1.018              0.438

 Optimization completed.
    -- Stationary point found.
 Normal termination of Gaussian 16 at Thu Aug 29 20:33:47 2024.
